MODEL 1
REMARK VINA RESULT:   -10.760      0.000      0.000
REMARK INTER + INTRA:         -10.760
REMARK INTER:                 -10.760
REMARK INTRA:                   0.000
REMARK UNBOUND:                 0.000
ROOT
HETATM    1 N1   LIG A   1      19.457  -8.414  16.039  1.00  0.00    -0.320  N
HETATM    2 C2   LIG A   1      18.749  -7.240  16.559  1.00  0.00     0.088  C
HETATM    3 C3   LIG A   1      17.301  -7.552  16.850  1.00  0.00     0.237  C
HETATM    4 O4   LIG A   1      16.674  -8.379  16.130  1.00  0.00    -0.273  O
HETATM    5 C5   LIG A   1      18.847  -6.065  15.573  1.00  0.00    -0.004  C
HETATM    6 C6   LIG A   1      20.274  -5.627  15.377  1.00  0.00    -0.046  C
HETATM    7 C7   LIG A   1      20.847  -4.681  16.244  1.00  0.00    -0.059  C
HETATM    8 C8   LIG A   1      21.061  -6.197  14.361  1.00  0.00    -0.059  C
HETATM    9 C9   LIG A   1      22.184  -4.300  16.085  1.00  0.00    -0.062  C
HETATM   10 C10  LIG A   1      22.397  -5.815  14.208  1.00  0.00    -0.062  C
HETATM   11 C11  LIG A   1      22.959  -4.867  15.068  1.00  0.00    -0.062  C
HETATM   12 N12  LIG A   1      16.622  -6.863  17.909  1.00  0.00    -0.343  N
HETATM   13 C13  LIG A   1      15.245  -7.190  18.296  1.00  0.00     0.110  C
HETATM   14 C14  LIG A   1      14.295  -6.508  17.343  1.00  0.00     0.243  C
HETATM   15 O15  LIG A   1      14.472  -5.297  17.041  1.00  0.00    -0.273  O
HETATM   16 C16  LIG A   1      14.966  -6.780  19.767  1.00  0.00    -0.018  C
HETATM   17 C17  LIG A   1      13.531  -7.141  20.189  1.00  0.00    -0.060  C
HETATM   18 C18  LIG A   1      15.959  -7.461  20.726  1.00  0.00    -0.060  C
HETATM   19 N19  LIG A   1      13.169  -7.227  16.819  1.00  0.00    -0.342  N
HETATM   20 C20  LIG A   1      12.410  -6.765  15.649  1.00  0.00     0.116  C
HETATM   21 C21  LIG A   1      11.533  -5.588  16.003  1.00  0.00     0.243  C
HETATM   22 O22  LIG A   1      11.363  -5.264  17.210  1.00  0.00    -0.273  O
HETATM   23 C23  LIG A   1      11.553  -7.911  15.078  1.00  0.00     0.056  C
HETATM   24 C24  LIG A   1      12.415  -9.027  14.561  1.00  0.00     0.220  C
HETATM   25 O25  LIG A   1      13.018  -8.892  13.462  1.00  0.00    -0.275  O
HETATM   26 N26  LIG A   1      12.585 -10.226  15.317  1.00  0.00    -0.370  N
HETATM   27 N27  LIG A   1      10.885  -4.845  14.959  1.00  0.00    -0.343  N
HETATM   28 C28  LIG A   1      10.173  -3.587  15.217  1.00  0.00     0.108  C
HETATM   29 C29  LIG A   1       8.959  -3.847  16.079  1.00  0.00     0.243  C
HETATM   30 O30  LIG A   1       8.248  -4.859  15.832  1.00  0.00    -0.273  O
HETATM   31 C31  LIG A   1       9.732  -2.925  13.893  1.00  0.00    -0.024  C
HETATM   32 C32  LIG A   1      10.925  -2.348  13.121  1.00  0.00    -0.050  C
HETATM   33 C33  LIG A   1      10.512  -1.805  11.749  1.00  0.00    -0.041  C
HETATM   34 C34  LIG A   1      11.729  -1.253  10.997  1.00  0.00    -0.008  C
HETATM   35 N35  LIG A   1      11.368  -0.917   9.623  1.00  0.00    -0.330  N
HETATM   36 N36  LIG A   1       8.569  -2.981  17.162  1.00  0.00    -0.343  N
HETATM   37 C37  LIG A   1       9.104  -1.639  17.419  1.00  0.00     0.108  C
HETATM   38 C38  LIG A   1       9.866  -1.644  18.718  1.00  0.00     0.243  C
HETATM   39 O39  LIG A   1       9.248  -1.668  19.817  1.00  0.00    -0.273  O
HETATM   40 C40  LIG A   1       7.961  -0.606  17.470  1.00  0.00    -0.021  C
HETATM   41 C41  LIG A   1       7.316  -0.350  16.087  1.00  0.00    -0.045  C
HETATM   42 C42  LIG A   1       5.926   0.274  16.264  1.00  0.00    -0.063  C
HETATM   43 C43  LIG A   1       8.190   0.566  15.215  1.00  0.00    -0.063  C
HETATM   44 N44  LIG A   1      11.297  -1.617  18.709  1.00  0.00    -0.342  N
HETATM   45 C45  LIG A   1      12.020  -0.596  19.474  1.00  0.00     0.116  C
HETATM   46 C46  LIG A   1      12.081   0.681  18.678  1.00  0.00     0.243  C
HETATM   47 O47  LIG A   1      11.905   0.647  17.431  1.00  0.00    -0.273  O
HETATM   48 C48  LIG A   1      13.438  -1.081  19.813  1.00  0.00     0.056  C
HETATM   49 C49  LIG A   1      13.392  -2.215  20.794  1.00  0.00     0.220  C
HETATM   50 O50  LIG A   1      13.452  -1.976  22.030  1.00  0.00    -0.275  O
HETATM   51 N51  LIG A   1      13.221  -3.557  20.342  1.00  0.00    -0.370  N
HETATM   52 N52  LIG A   1      12.354   1.930  19.333  1.00  0.00    -0.343  N
HETATM   53 C53  LIG A   1      12.353   3.207  18.613  1.00  0.00     0.108  C
HETATM   54 C54  LIG A   1      13.597   3.990  18.938  1.00  0.00     0.243  C
HETATM   55 O55  LIG A   1      13.906   4.206  20.142  1.00  0.00    -0.273  O
HETATM   56 C56  LIG A   1      11.092   4.020  18.953  1.00  0.00    -0.022  C
HETATM   57 C57  LIG A   1       9.827   3.398  18.338  1.00  0.00    -0.033  C
HETATM   58 C58  LIG A   1       8.616   4.321  18.522  1.00  0.00     0.018  C
HETATM   59 N59  LIG A   1       7.483   3.861  17.716  1.00  0.00    -0.357  N
HETATM   60 C60  LIG A   1       7.373   4.126  16.309  1.00  0.00     0.185  C
HETATM   61 N61  LIG A   1       8.360   4.666  15.664  1.00  0.00    -0.270  N
HETATM   62 N62  LIG A   1       6.168   3.795  15.617  1.00  0.00    -0.370  N
HETATM   63 N63  LIG A   1      14.399   4.526  17.873  1.00  0.00    -0.342  N
HETATM   64 C64  LIG A   1      15.666   5.239  18.081  1.00  0.00     0.110  C
HETATM   65 C65  LIG A   1      15.744   6.454  17.175  1.00  0.00     0.243  C
HETATM   66 O66  LIG A   1      14.749   6.771  16.468  1.00  0.00    -0.273  O
HETATM   67 C67  LIG A   1      16.877   4.265  17.911  1.00  0.00    -0.015  C
HETATM   68 C68  LIG A   1      17.039   3.403  19.173  1.00  0.00    -0.060  C
HETATM   69 C69  LIG A   1      16.796   3.335  16.672  1.00  0.00    -0.051  C
HETATM   70 C70  LIG A   1      16.869   4.074  15.340  1.00  0.00    -0.065  C
HETATM   71 N71  LIG A   1      16.912   7.293  17.169  1.00  0.00    -0.342  N
HETATM   72 C72  LIG A   1      16.998   8.504  16.333  1.00  0.00     0.110  C
HETATM   73 C73  LIG A   1      16.863   8.156  14.864  1.00  0.00     0.246  C
HETATM   74 O74  LIG A   1      17.359   7.079  14.438  1.00  0.00    -0.272  O
HETATM   75 C75  LIG A   1      18.293   9.325  16.611  1.00  0.00    -0.015  C
HETATM   76 C76  LIG A   1      18.260   9.924  18.029  1.00  0.00    -0.060  C
HETATM   77 C77  LIG A   1      19.591   8.510  16.366  1.00  0.00    -0.051  C
HETATM   78 C78  LIG A   1      20.844   9.386  16.344  1.00  0.00    -0.065  C
HETATM   79 N79  LIG A   1      16.162   9.017  13.949  1.00  0.00    -0.329  N
HETATM   80 C80  LIG A   1      15.209   8.521  12.964  1.00  0.00     0.111  C
HETATM   81 C81  LIG A   1      15.839   7.552  11.995  1.00  0.00     0.243  C
HETATM   82 O82  LIG A   1      16.939   7.840  11.448  1.00  0.00    -0.273  O
HETATM   83 C83  LIG A   1      14.679   9.760  12.241  1.00  0.00    -0.022  C
HETATM   84 C84  LIG A   1      15.018  10.941  13.146  1.00  0.00    -0.033  C
HETATM   85 C85  LIG A   1      16.157  10.471  14.041  1.00  0.00     0.021  C
HETATM   86 N86  LIG A   1      15.158   6.330  11.665  1.00  0.00    -0.342  N
HETATM   87 C87  LIG A   1      15.508   5.448  10.548  1.00  0.00     0.110  C
HETATM   88 C88  LIG A   1      16.863   4.825  10.773  1.00  0.00     0.243  C
HETATM   89 O89  LIG A   1      17.909   5.396  10.360  1.00  0.00    -0.273  O
HETATM   90 C90  LIG A   1      15.385   6.169   9.176  1.00  0.00    -0.018  C
HETATM   91 C91  LIG A   1      14.008   6.834   9.021  1.00  0.00    -0.060  C
HETATM   92 C92  LIG A   1      15.605   5.184   8.014  1.00  0.00    -0.060  C
HETATM   93 N93  LIG A   1      16.960   3.566  11.446  1.00  0.00    -0.343  N
HETATM   94 C94  LIG A   1      17.838   2.510  10.935  1.00  0.00     0.108  C
HETATM   95 C95  LIG A   1      17.261   1.953   9.657  1.00  0.00     0.243  C
HETATM   96 O96  LIG A   1      18.026   1.723   8.681  1.00  0.00    -0.273  O
HETATM   97 C97  LIG A   1      18.002   1.396  11.988  1.00  0.00    -0.024  C
HETATM   98 C98  LIG A   1      19.141   0.429  11.636  1.00  0.00    -0.050  C
HETATM   99 C99  LIG A   1      19.299  -0.649  12.715  1.00  0.00    -0.041  C
HETATM  100 C100 LIG A   1      20.416  -1.629  12.349  1.00  0.00    -0.008  C
HETATM  101 N101 LIG A   1      20.624  -2.585  13.430  1.00  0.00    -0.330  N
HETATM  102 N102 LIG A   1      15.858   1.657   9.560  1.00  0.00    -0.345  N
HETATM  103 C103 LIG A   1      15.267   1.042   8.377  1.00  0.00     0.097  C
HETATM  104 C104 LIG A   1      15.635  -0.409   8.310  1.00  0.00     0.240  C
HETATM  105 O105 LIG A   1      16.086  -0.888   7.235  1.00  0.00    -0.273  O
HETATM  106 N106 LIG A   1      15.441  -1.251   9.456  1.00  0.00    -0.342  N
HETATM  107 C107 LIG A   1      15.871  -2.652   9.485  1.00  0.00     0.112  C
HETATM  108 C108 LIG A   1      15.185  -3.375  10.619  1.00  0.00     0.243  C
HETATM  109 O109 LIG A   1      14.439  -4.360  10.358  1.00  0.00    -0.273  O
HETATM  110 C110 LIG A   1      17.406  -2.732   9.606  1.00  0.00     0.002  C
HETATM  111 C111 LIG A   1      17.899  -4.157   9.654  1.00  0.00    -0.045  C
HETATM  112 C112 LIG A   1      17.936  -4.933   8.485  1.00  0.00    -0.059  C
HETATM  113 C113 LIG A   1      18.286  -4.732  10.875  1.00  0.00    -0.059  C
HETATM  114 C114 LIG A   1      18.359  -6.266   8.538  1.00  0.00    -0.062  C
HETATM  115 C115 LIG A   1      18.705  -6.064  10.926  1.00  0.00    -0.062  C
HETATM  116 C116 LIG A   1      18.742  -6.831   9.758  1.00  0.00    -0.062  C
HETATM  117 N117 LIG A   1      15.378  -2.952  11.978  1.00  0.00    -0.340  N
HETATM  118 C118 LIG A   1      14.727  -3.610  13.115  1.00  0.00     0.131  C
HETATM  119 C119 LIG A   1      14.145  -2.606  14.087  1.00  0.00     0.245  C
HETATM  120 O120 LIG A   1      13.571  -3.034  15.125  1.00  0.00    -0.273  O
HETATM  121 C121 LIG A   1      15.736  -4.532  13.817  1.00  0.00     0.072  C
HETATM  122 O122 LIG A   1      16.686  -3.790  14.532  1.00  0.00    -0.394  O
HETATM  123 N123 LIG A   1      14.206  -1.188  13.840  1.00  0.00    -0.342  N
HETATM  124 C124 LIG A   1      13.994  -0.187  14.898  1.00  0.00     0.109  C
HETATM  125 C125 LIG A   1      14.152   1.208  14.341  1.00  0.00     0.243  C
HETATM  126 O126 LIG A   1      15.170   1.484  13.655  1.00  0.00    -0.273  O
HETATM  127 C127 LIG A   1      14.948  -0.409  16.093  1.00  0.00    -0.015  C
HETATM  128 C128 LIG A   1      16.440  -0.474  15.709  1.00  0.00    -0.005  C
HETATM  129 S129 LIG A   1      17.384  -1.494  16.901  1.00  0.00    -0.165  S
HETATM  130 C130 LIG A   1      17.443  -0.251  18.230  1.00  0.00    -0.018  C
HETATM  131 N131 LIG A   1      13.166   2.222  14.595  1.00  0.00    -0.341  N
HETATM  132 C132 LIG A   1      13.074   3.433  13.769  1.00  0.00     0.127  C
HETATM  133 C133 LIG A   1      12.576   4.603  14.574  1.00  0.00     0.326  C
HETATM  134 O134 LIG A   1      13.053   5.751  14.376  1.00  0.00    -0.250  O
HETATM  135 C135 LIG A   1      12.190   3.173  12.533  1.00  0.00    -0.020  C
HETATM  136 C136 LIG A   1      10.704   2.972  12.879  1.00  0.00    -0.033  C
HETATM  137 C137 LIG A   1       9.911   2.460  11.676  1.00  0.00     0.018  C
HETATM  138 N138 LIG A   1       8.491   2.339  12.008  1.00  0.00    -0.357  N
HETATM  139 C139 LIG A   1       7.565   1.651  11.158  1.00  0.00     0.185  C
HETATM  140 N140 LIG A   1       7.962   1.145  10.033  1.00  0.00    -0.270  N
HETATM  141 N141 LIG A   1       6.201   1.516  11.563  1.00  0.00    -0.370  N
HETATM  142 O142 LIG A   1      11.544   4.441  15.493  1.00  0.00    -0.480  O
ENDROOT
TORSDOF 0
                                                                                                                                                 
ENDMDL
MODEL 2
REMARK VINA RESULT:    -8.260      3.120     11.214
REMARK INTER + INTRA:          -8.260
REMARK INTER:                  -8.260
REMARK INTRA:                   0.000
REMARK UNBOUND:                 0.000
ROOT
HETATM    1 N1   LIG A   1      17.680   6.872   9.481  1.00  0.00    -0.320  N
HETATM    2 C2   LIG A   1      16.606   6.484  10.401  1.00  0.00     0.088  C
HETATM    3 C3   LIG A   1      17.089   6.449  11.830  1.00  0.00     0.237  C
HETATM    4 O4   LIG A   1      18.276   6.105  12.091  1.00  0.00    -0.273  O
HETATM    5 C5   LIG A   1      16.022   5.117  10.009  1.00  0.00    -0.004  C
HETATM    6 C6   LIG A   1      15.394   5.158   8.642  1.00  0.00    -0.046  C
HETATM    7 C7   LIG A   1      14.051   5.544   8.493  1.00  0.00    -0.059  C
HETATM    8 C8   LIG A   1      16.156   4.861   7.498  1.00  0.00    -0.059  C
HETATM    9 C9   LIG A   1      13.475   5.617   7.220  1.00  0.00    -0.062  C
HETATM   10 C10  LIG A   1      15.577   4.937   6.228  1.00  0.00    -0.062  C
HETATM   11 C11  LIG A   1      14.238   5.314   6.088  1.00  0.00    -0.062  C
HETATM   12 N12  LIG A   1      16.179   6.753  12.897  1.00  0.00    -0.343  N
HETATM   13 C13  LIG A   1      16.614   6.824  14.296  1.00  0.00     0.110  C
HETATM   14 C14  LIG A   1      16.689   5.427  14.857  1.00  0.00     0.243  C
HETATM   15 O15  LIG A   1      15.745   4.618  14.652  1.00  0.00    -0.273  O
HETATM   16 C16  LIG A   1      15.661   7.722  15.132  1.00  0.00    -0.018  C
HETATM   17 C17  LIG A   1      16.124   7.822  16.597  1.00  0.00    -0.060  C
HETATM   18 C18  LIG A   1      15.572   9.137  14.535  1.00  0.00    -0.060  C
HETATM   19 N19  LIG A   1      17.814   5.037  15.659  1.00  0.00    -0.342  N
HETATM   20 C20  LIG A   1      18.131   3.632  15.948  1.00  0.00     0.116  C
HETATM   21 C21  LIG A   1      17.171   3.058  16.962  1.00  0.00     0.243  C
HETATM   22 O22  LIG A   1      16.385   3.817  17.593  1.00  0.00    -0.273  O
HETATM   23 C23  LIG A   1      19.579   3.501  16.458  1.00  0.00     0.056  C
HETATM   24 C24  LIG A   1      20.565   3.908  15.400  1.00  0.00     0.220  C
HETATM   25 O25  LIG A   1      20.804   3.130  14.438  1.00  0.00    -0.275  O
HETATM   26 N26  LIG A   1      21.209   5.181  15.457  1.00  0.00    -0.370  N
HETATM   27 N27  LIG A   1      17.163   1.644  17.213  1.00  0.00    -0.343  N
HETATM   28 C28  LIG A   1      16.136   1.000  18.042  1.00  0.00     0.108  C
HETATM   29 C29  LIG A   1      16.259   1.470  19.474  1.00  0.00     0.243  C
HETATM   30 O30  LIG A   1      17.410   1.576  19.978  1.00  0.00    -0.273  O
HETATM   31 C31  LIG A   1      16.275  -0.537  17.992  1.00  0.00    -0.024  C
HETATM   32 C32  LIG A   1      15.845  -1.102  16.633  1.00  0.00    -0.050  C
HETATM   33 C33  LIG A   1      16.101  -2.609  16.531  1.00  0.00    -0.041  C
HETATM   34 C34  LIG A   1      15.677  -3.138  15.155  1.00  0.00    -0.008  C
HETATM   35 N35  LIG A   1      16.100  -4.526  14.993  1.00  0.00    -0.330  N
HETATM   36 N36  LIG A   1      15.118   1.788  20.293  1.00  0.00    -0.343  N
HETATM   37 C37  LIG A   1      13.721   1.469  19.975  1.00  0.00     0.108  C
HETATM   38 C38  LIG A   1      12.953   2.746  19.758  1.00  0.00     0.243  C
HETATM   39 O39  LIG A   1      12.622   3.463  20.741  1.00  0.00    -0.273  O
HETATM   40 C40  LIG A   1      13.085   0.645  21.112  1.00  0.00    -0.021  C
HETATM   41 C41  LIG A   1      13.648  -0.793  21.204  1.00  0.00    -0.045  C
HETATM   42 C42  LIG A   1      13.366  -1.380  22.592  1.00  0.00    -0.063  C
HETATM   43 C43  LIG A   1      13.049  -1.706  20.122  1.00  0.00    -0.063  C
HETATM   44 N44  LIG A   1      12.591   3.148  18.433  1.00  0.00    -0.342  N
HETATM   45 C45  LIG A   1      11.194   3.459  18.113  1.00  0.00     0.116  C
HETATM   46 C46  LIG A   1      10.445   2.183  17.832  1.00  0.00     0.243  C
HETATM   47 O47  LIG A   1      11.083   1.141  17.525  1.00  0.00    -0.273  O
HETATM   48 C48  LIG A   1      11.116   4.400  16.900  1.00  0.00     0.056  C
HETATM   49 C49  LIG A   1      11.655   5.756  17.244  1.00  0.00     0.220  C
HETATM   50 O50  LIG A   1      10.874   6.650  17.668  1.00  0.00    -0.275  O
HETATM   51 N51  LIG A   1      13.052   6.025  17.153  1.00  0.00    -0.370  N
HETATM   52 N52  LIG A   1       9.011   2.155  17.900  1.00  0.00    -0.343  N
HETATM   53 C53  LIG A   1       8.242   0.922  17.706  1.00  0.00     0.108  C
HETATM   54 C54  LIG A   1       7.124   1.153  16.725  1.00  0.00     0.243  C
HETATM   55 O55  LIG A   1       6.318   2.107  16.904  1.00  0.00    -0.273  O
HETATM   56 C56  LIG A   1       7.692   0.409  19.048  1.00  0.00    -0.022  C
HETATM   57 C57  LIG A   1       8.808  -0.144  19.951  1.00  0.00    -0.033  C
HETATM   58 C58  LIG A   1       8.223  -0.825  21.194  1.00  0.00     0.018  C
HETATM   59 N59  LIG A   1       9.255  -1.576  21.911  1.00  0.00    -0.357  N
HETATM   60 C60  LIG A   1       9.693  -2.880  21.499  1.00  0.00     0.185  C
HETATM   61 N61  LIG A   1       9.286  -3.384  20.376  1.00  0.00    -0.270  N
HETATM   62 N62  LIG A   1      10.581  -3.627  22.334  1.00  0.00    -0.370  N
HETATM   63 N63  LIG A   1       6.956   0.257  15.614  1.00  0.00    -0.342  N
HETATM   64 C64  LIG A   1       5.946   0.436  14.564  1.00  0.00     0.110  C
HETATM   65 C65  LIG A   1       5.296  -0.893  14.222  1.00  0.00     0.243  C
HETATM   66 O66  LIG A   1       5.584  -1.919  14.895  1.00  0.00    -0.273  O
HETATM   67 C67  LIG A   1       6.568   1.153  13.322  1.00  0.00    -0.015  C
HETATM   68 C68  LIG A   1       6.696   2.660  13.596  1.00  0.00    -0.060  C
HETATM   69 C69  LIG A   1       7.949   0.603  12.876  1.00  0.00    -0.051  C
HETATM   70 C70  LIG A   1       7.902  -0.828  12.351  1.00  0.00    -0.065  C
HETATM   71 N71  LIG A   1       4.299  -0.980  13.189  1.00  0.00    -0.342  N
HETATM   72 C72  LIG A   1       3.619  -2.248  12.867  1.00  0.00     0.110  C
HETATM   73 C73  LIG A   1       4.617  -3.296  12.419  1.00  0.00     0.246  C
HETATM   74 O74  LIG A   1       5.616  -2.945  11.737  1.00  0.00    -0.272  O
HETATM   75 C75  LIG A   1       2.478  -2.059  11.823  1.00  0.00    -0.015  C
HETATM   76 C76  LIG A   1       1.328  -1.229  12.422  1.00  0.00    -0.060  C
HETATM   77 C77  LIG A   1       2.977  -1.457  10.483  1.00  0.00    -0.051  C
HETATM   78 C78  LIG A   1       1.935  -1.551   9.368  1.00  0.00    -0.065  C
HETATM   79 N79  LIG A   1       4.462  -4.683  12.775  1.00  0.00    -0.329  N
HETATM   80 C80  LIG A   1       5.563  -5.506  13.256  1.00  0.00     0.111  C
HETATM   81 C81  LIG A   1       6.684  -5.609  12.252  1.00  0.00     0.243  C
HETATM   82 O82  LIG A   1       6.421  -5.872  11.046  1.00  0.00    -0.273  O
HETATM   83 C83  LIG A   1       4.955  -6.879  13.548  1.00  0.00    -0.022  C
HETATM   84 C84  LIG A   1       3.450  -6.650  13.645  1.00  0.00    -0.033  C
HETATM   85 C85  LIG A   1       3.174  -5.351  12.900  1.00  0.00     0.021  C
HETATM   86 N86  LIG A   1       8.045  -5.453  12.685  1.00  0.00    -0.342  N
HETATM   87 C87  LIG A   1       9.226  -5.802  11.889  1.00  0.00     0.110  C
HETATM   88 C88  LIG A   1       9.333  -4.901  10.684  1.00  0.00     0.243  C
HETATM   89 O89  LIG A   1       8.780  -5.218   9.595  1.00  0.00    -0.273  O
HETATM   90 C90  LIG A   1       9.260  -7.315  11.530  1.00  0.00    -0.018  C
HETATM   91 C91  LIG A   1       9.089  -8.186  12.784  1.00  0.00    -0.060  C
HETATM   92 C92  LIG A   1      10.580  -7.686  10.831  1.00  0.00    -0.060  C
HETATM   93 N93  LIG A   1      10.085  -3.687  10.773  1.00  0.00    -0.343  N
HETATM   94 C94  LIG A   1      11.013  -3.301   9.706  1.00  0.00     0.108  C
HETATM   95 C95  LIG A   1      12.209  -4.220   9.726  1.00  0.00     0.243  C
HETATM   96 O96  LIG A   1      12.667  -4.665   8.638  1.00  0.00    -0.273  O
HETATM   97 C97  LIG A   1      11.451  -1.834   9.884  1.00  0.00    -0.024  C
HETATM   98 C98  LIG A   1      12.168  -1.289   8.642  1.00  0.00    -0.050  C
HETATM   99 C99  LIG A   1      12.565   0.180   8.837  1.00  0.00    -0.041  C
HETATM  100 C100 LIG A   1      13.304   0.714   7.608  1.00  0.00    -0.008  C
HETATM  101 N101 LIG A   1      13.584   2.136   7.766  1.00  0.00    -0.330  N
HETATM  102 N102 LIG A   1      12.843  -4.562  10.969  1.00  0.00    -0.345  N
HETATM  103 C103 LIG A   1      14.051  -5.379  11.034  1.00  0.00     0.097  C
HETATM  104 C104 LIG A   1      15.237  -4.585  10.583  1.00  0.00     0.240  C
HETATM  105 O105 LIG A   1      16.028  -5.075   9.734  1.00  0.00    -0.273  O
HETATM  106 N106 LIG A   1      15.486  -3.287  11.143  1.00  0.00    -0.342  N
HETATM  107 C107 LIG A   1      16.572  -2.421  10.674  1.00  0.00     0.112  C
HETATM  108 C108 LIG A   1      16.842  -1.339  11.692  1.00  0.00     0.243  C
HETATM  109 O109 LIG A   1      17.984  -1.269  12.225  1.00  0.00    -0.273  O
HETATM  110 C110 LIG A   1      16.218  -1.829   9.294  1.00  0.00     0.002  C
HETATM  111 C111 LIG A   1      17.300  -0.917   8.773  1.00  0.00    -0.045  C
HETATM  112 C112 LIG A   1      18.489  -1.455   8.253  1.00  0.00    -0.059  C
HETATM  113 C113 LIG A   1      17.146   0.477   8.840  1.00  0.00    -0.059  C
HETATM  114 C114 LIG A   1      19.506  -0.607   7.803  1.00  0.00    -0.062  C
HETATM  115 C115 LIG A   1      18.166   1.321   8.393  1.00  0.00    -0.062  C
HETATM  116 C116 LIG A   1      19.346   0.780   7.873  1.00  0.00    -0.062  C
HETATM  117 N117 LIG A   1      15.815  -0.401  12.050  1.00  0.00    -0.340  N
HETATM  118 C118 LIG A   1      16.020   0.661  13.040  1.00  0.00     0.131  C
HETATM  119 C119 LIG A   1      14.856   0.761  14.003  1.00  0.00     0.245  C
HETATM  120 O120 LIG A   1      14.889   1.648  14.899  1.00  0.00    -0.273  O
HETATM  121 C121 LIG A   1      16.250   1.996  12.316  1.00  0.00     0.072  C
HETATM  122 O122 LIG A   1      15.061   2.477  11.750  1.00  0.00    -0.394  O
HETATM  123 N123 LIG A   1      13.737  -0.142  13.938  1.00  0.00    -0.342  N
HETATM  124 C124 LIG A   1      12.449   0.138  14.591  1.00  0.00     0.109  C
HETATM  125 C125 LIG A   1      11.466  -0.977  14.319  1.00  0.00     0.243  C
HETATM  126 O126 LIG A   1      11.297  -1.370  13.135  1.00  0.00    -0.273  O
HETATM  127 C127 LIG A   1      11.867   1.499  14.145  1.00  0.00    -0.015  C
HETATM  128 C128 LIG A   1      11.740   1.663  12.617  1.00  0.00    -0.005  C
HETATM  129 S129 LIG A   1      11.848   3.425  12.132  1.00  0.00    -0.165  S
HETATM  130 C130 LIG A   1      10.163   3.882  12.650  1.00  0.00    -0.018  C
HETATM  131 N131 LIG A   1      10.717  -1.580  15.386  1.00  0.00    -0.341  N
HETATM  132 C132 LIG A   1      10.075  -2.892  15.231  1.00  0.00     0.127  C
HETATM  133 C133 LIG A   1       8.825  -2.986  16.065  1.00  0.00     0.326  C
HETATM  134 O134 LIG A   1       7.816  -3.590  15.617  1.00  0.00    -0.250  O
HETATM  135 C135 LIG A   1      11.072  -4.020  15.569  1.00  0.00    -0.020  C
HETATM  136 C136 LIG A   1      11.443  -4.077  17.062  1.00  0.00    -0.033  C
HETATM  137 C137 LIG A   1      12.619  -5.022  17.312  1.00  0.00     0.018  C
HETATM  138 N138 LIG A   1      12.912  -5.112  18.743  1.00  0.00    -0.357  N
HETATM  139 C139 LIG A   1      14.111  -5.722  19.239  1.00  0.00     0.185  C
HETATM  140 N140 LIG A   1      14.961  -6.255  18.419  1.00  0.00    -0.270  N
HETATM  141 N141 LIG A   1      14.369  -5.729  20.644  1.00  0.00    -0.370  N
HETATM  142 O142 LIG A   1       8.794  -2.466  17.354  1.00  0.00    -0.480  O
ENDROOT
TORSDOF 0
                                                                                                                                                 
ENDMDL
MODEL 3
REMARK VINA RESULT:    -8.160      3.549     12.613
REMARK INTER + INTRA:          -8.160
REMARK INTER:                  -8.160
REMARK INTRA:                   0.000
REMARK UNBOUND:                 0.000
ROOT
HETATM    1 N1   LIG A   1      13.795   8.201  11.053  1.00  0.00    -0.320  N
HETATM    2 C2   LIG A   1      13.195   6.870  10.907  1.00  0.00     0.088  C
HETATM    3 C3   LIG A   1      11.688   6.939  10.923  1.00  0.00     0.237  C
HETATM    4 O4   LIG A   1      11.100   7.804  11.631  1.00  0.00    -0.273  O
HETATM    5 C5   LIG A   1      13.691   5.926  12.014  1.00  0.00    -0.004  C
HETATM    6 C6   LIG A   1      15.179   5.715  11.932  1.00  0.00    -0.046  C
HETATM    7 C7   LIG A   1      15.704   4.699  11.115  1.00  0.00    -0.059  C
HETATM    8 C8   LIG A   1      16.058   6.561  12.630  1.00  0.00    -0.059  C
HETATM    9 C9   LIG A   1      17.088   4.524  11.010  1.00  0.00    -0.062  C
HETATM   10 C10  LIG A   1      17.441   6.384  12.520  1.00  0.00    -0.062  C
HETATM   11 C11  LIG A   1      17.956   5.366  11.711  1.00  0.00    -0.062  C
HETATM   12 N12  LIG A   1      10.923   5.982  10.176  1.00  0.00    -0.343  N
HETATM   13 C13  LIG A   1       9.461   6.056  10.081  1.00  0.00     0.110  C
HETATM   14 C14  LIG A   1       8.859   5.455  11.326  1.00  0.00     0.243  C
HETATM   15 O15  LIG A   1       9.292   4.356  11.764  1.00  0.00    -0.273  O
HETATM   16 C16  LIG A   1       8.948   5.342   8.801  1.00  0.00    -0.018  C
HETATM   17 C17  LIG A   1       7.417   5.435   8.680  1.00  0.00    -0.060  C
HETATM   18 C18  LIG A   1       9.590   5.945   7.539  1.00  0.00    -0.060  C
HETATM   19 N19  LIG A   1       7.766   6.116  11.982  1.00  0.00    -0.342  N
HETATM   20 C20  LIG A   1       7.358   5.795  13.357  1.00  0.00     0.116  C
HETATM   21 C21  LIG A   1       6.632   4.472  13.410  1.00  0.00     0.243  C
HETATM   22 O22  LIG A   1       6.265   3.906  12.345  1.00  0.00    -0.273  O
HETATM   23 C23  LIG A   1       6.464   6.913  13.928  1.00  0.00     0.056  C
HETATM   24 C24  LIG A   1       7.222   8.205  14.044  1.00  0.00     0.220  C
HETATM   25 O25  LIG A   1       8.057   8.358  14.975  1.00  0.00    -0.275  O
HETATM   26 N26  LIG A   1       7.028   9.249  13.089  1.00  0.00    -0.370  N
HETATM   27 N27  LIG A   1       6.350   3.867  14.683  1.00  0.00    -0.343  N
HETATM   28 C28  LIG A   1       5.816   2.504  14.801  1.00  0.00     0.108  C
HETATM   29 C29  LIG A   1       4.421   2.443  14.222  1.00  0.00     0.243  C
HETATM   30 O30  LIG A   1       3.622   3.387  14.468  1.00  0.00    -0.273  O
HETATM   31 C31  LIG A   1       5.779   2.057  16.279  1.00  0.00    -0.024  C
HETATM   32 C32  LIG A   1       7.186   1.790  16.827  1.00  0.00    -0.050  C
HETATM   33 C33  LIG A   1       7.168   1.471  18.326  1.00  0.00    -0.041  C
HETATM   34 C34  LIG A   1       8.590   1.228  18.845  1.00  0.00    -0.008  C
HETATM   35 N35  LIG A   1       8.587   1.118  20.301  1.00  0.00    -0.330  N
HETATM   36 N36  LIG A   1       3.958   1.345  13.412  1.00  0.00    -0.343  N
HETATM   37 C37  LIG A   1       4.640   0.055  13.250  1.00  0.00     0.108  C
HETATM   38 C38  LIG A   1       5.099  -0.093  11.823  1.00  0.00     0.243  C
HETATM   39 O39  LIG A   1       4.267  -0.355  10.912  1.00  0.00    -0.273  O
HETATM   40 C40  LIG A   1       3.697  -1.103  13.635  1.00  0.00    -0.021  C
HETATM   41 C41  LIG A   1       3.410  -1.168  15.154  1.00  0.00    -0.045  C
HETATM   42 C42  LIG A   1       2.136  -1.982  15.412  1.00  0.00    -0.063  C
HETATM   43 C43  LIG A   1       4.587  -1.786  15.927  1.00  0.00    -0.063  C
HETATM   44 N44  LIG A   1       6.484   0.060  11.497  1.00  0.00    -0.342  N
HETATM   45 C45  LIG A   1       7.187  -0.990  10.753  1.00  0.00     0.116  C
HETATM   46 C46  LIG A   1       7.623  -2.074  11.702  1.00  0.00     0.243  C
HETATM   47 O47  LIG A   1       7.711  -1.825  12.934  1.00  0.00    -0.273  O
HETATM   48 C48  LIG A   1       8.402  -0.406  10.015  1.00  0.00     0.056  C
HETATM   49 C49  LIG A   1       7.964   0.505   8.908  1.00  0.00     0.220  C
HETATM   50 O50  LIG A   1       7.799   0.044   7.746  1.00  0.00    -0.275  O
HETATM   51 N51  LIG A   1       7.674   1.877   9.170  1.00  0.00    -0.370  N
HETATM   52 N52  LIG A   1       7.953  -3.381  11.206  1.00  0.00    -0.343  N
HETATM   53 C53  LIG A   1       8.314  -4.488  12.098  1.00  0.00     0.108  C
HETATM   54 C54  LIG A   1       9.572  -5.158  11.614  1.00  0.00     0.243  C
HETATM   55 O55  LIG A   1       9.651  -5.559  10.421  1.00  0.00    -0.273  O
HETATM   56 C56  LIG A   1       7.160  -5.501  12.198  1.00  0.00    -0.022  C
HETATM   57 C57  LIG A   1       5.969  -4.935  12.990  1.00  0.00    -0.033  C
HETATM   58 C58  LIG A   1       4.915  -6.019  13.246  1.00  0.00     0.018  C
HETATM   59 N59  LIG A   1       3.919  -5.559  14.215  1.00  0.00    -0.357  N
HETATM   60 C60  LIG A   1       4.154  -5.563  15.631  1.00  0.00     0.185  C
HETATM   61 N61  LIG A   1       5.329  -5.843  16.101  1.00  0.00    -0.270  N
HETATM   62 N62  LIG A   1       3.084  -5.257  16.529  1.00  0.00    -0.370  N
HETATM   63 N63  LIG A   1      10.658  -5.377  12.529  1.00  0.00    -0.342  N
HETATM   64 C64  LIG A   1      11.951  -5.954  12.142  1.00  0.00     0.110  C
HETATM   65 C65  LIG A   1      12.419  -6.955  13.183  1.00  0.00     0.243  C
HETATM   66 O66  LIG A   1      11.661  -7.252  14.146  1.00  0.00    -0.273  O
HETATM   67 C67  LIG A   1      12.995  -4.823  11.865  1.00  0.00    -0.015  C
HETATM   68 C68  LIG A   1      12.742  -4.204  10.481  1.00  0.00    -0.060  C
HETATM   69 C69  LIG A   1      13.025  -3.692  12.925  1.00  0.00    -0.051  C
HETATM   70 C70  LIG A   1      13.499  -4.148  14.301  1.00  0.00    -0.065  C
HETATM   71 N71  LIG A   1      13.683  -7.626  13.044  1.00  0.00    -0.342  N
HETATM   72 C72  LIG A   1      14.141  -8.636  14.015  1.00  0.00     0.110  C
HETATM   73 C73  LIG A   1      14.264  -8.033  15.401  1.00  0.00     0.246  C
HETATM   74 O74  LIG A   1      14.655  -6.842  15.523  1.00  0.00    -0.272  O
HETATM   75 C75  LIG A   1      15.465  -9.327  13.571  1.00  0.00    -0.015  C
HETATM   76 C76  LIG A   1      15.232 -10.184  12.314  1.00  0.00    -0.060  C
HETATM   77 C77  LIG A   1      16.633  -8.326  13.370  1.00  0.00    -0.051  C
HETATM   78 C78  LIG A   1      17.989  -9.020  13.231  1.00  0.00    -0.065  C
HETATM   79 N79  LIG A   1      13.923  -8.785  16.580  1.00  0.00    -0.329  N
HETATM   80 C80  LIG A   1      13.131  -8.232  17.672  1.00  0.00     0.111  C
HETATM   81 C81  LIG A   1      13.784  -7.026  18.300  1.00  0.00     0.243  C
HETATM   82 O82  LIG A   1      15.007  -7.066  18.608  1.00  0.00    -0.273  O
HETATM   83 C83  LIG A   1      12.978  -9.367  18.686  1.00  0.00    -0.022  C
HETATM   84 C84  LIG A   1      13.306 -10.647  17.923  1.00  0.00    -0.033  C
HETATM   85 C85  LIG A   1      14.138 -10.218  16.722  1.00  0.00     0.021  C
HETATM   86 N86  LIG A   1      12.997  -5.858  18.585  1.00  0.00    -0.342  N
HETATM   87 C87  LIG A   1      13.426  -4.742  19.434  1.00  0.00     0.110  C
HETATM   88 C88  LIG A   1      14.582  -4.011  18.798  1.00  0.00     0.243  C
HETATM   89 O89  LIG A   1      15.771  -4.358  19.037  1.00  0.00    -0.273  O
HETATM   90 C90  LIG A   1      13.716  -5.199  20.892  1.00  0.00    -0.018  C
HETATM   91 C91  LIG A   1      12.531  -5.988  21.472  1.00  0.00    -0.060  C
HETATM   92 C92  LIG A   1      14.011  -3.991  21.799  1.00  0.00    -0.060  C
HETATM   93 N93  LIG A   1      14.326  -2.900  17.933  1.00  0.00    -0.343  N
HETATM   94 C94  LIG A   1      15.107  -1.666  18.048  1.00  0.00     0.108  C
HETATM   95 C95  LIG A   1      14.730  -0.952  19.322  1.00  0.00     0.243  C
HETATM   96 O96  LIG A   1      15.635  -0.446  20.041  1.00  0.00    -0.273  O
HETATM   97 C97  LIG A   1      14.860  -0.761  16.825  1.00  0.00    -0.024  C
HETATM   98 C98  LIG A   1      15.872   0.389  16.740  1.00  0.00    -0.050  C
HETATM   99 C99  LIG A   1      15.620   1.253  15.498  1.00  0.00    -0.041  C
HETATM  100 C100 LIG A   1      16.613   2.415  15.431  1.00  0.00    -0.008  C
HETATM  101 N101 LIG A   1      16.428   3.166  14.195  1.00  0.00    -0.330  N
HETATM  102 N102 LIG A   1      13.350  -0.820  19.701  1.00  0.00    -0.345  N
HETATM  103 C103 LIG A   1      12.929  -0.068  20.880  1.00  0.00     0.097  C
HETATM  104 C104 LIG A   1      13.059   1.403  20.628  1.00  0.00     0.240  C
HETATM  105 O105 LIG A   1      13.643   2.130  21.477  1.00  0.00    -0.273  O
HETATM  106 N106 LIG A   1      12.493   1.980  19.443  1.00  0.00    -0.342  N
HETATM  107 C107 LIG A   1      12.670   3.393  19.093  1.00  0.00     0.112  C
HETATM  108 C108 LIG A   1      11.651   3.796  18.055  1.00  0.00     0.243  C
HETATM  109 O109 LIG A   1      10.826   4.712  18.327  1.00  0.00    -0.273  O
HETATM  110 C110 LIG A   1      14.111   3.638  18.601  1.00  0.00     0.002  C
HETATM  111 C111 LIG A   1      14.342   5.078  18.213  1.00  0.00    -0.045  C
HETATM  112 C112 LIG A   1      14.497   6.062  19.203  1.00  0.00    -0.059  C
HETATM  113 C113 LIG A   1      14.362   5.453  16.860  1.00  0.00    -0.059  C
HETATM  114 C114 LIG A   1      14.675   7.401  18.842  1.00  0.00    -0.062  C
HETATM  115 C115 LIG A   1      14.536   6.793  16.503  1.00  0.00    -0.062  C
HETATM  116 C116 LIG A   1      14.694   7.767  17.493  1.00  0.00    -0.062  C
HETATM  117 N117 LIG A   1      11.619   3.149  16.773  1.00  0.00    -0.340  N
HETATM  118 C118 LIG A   1      10.644   3.493  15.733  1.00  0.00     0.131  C
HETATM  119 C119 LIG A   1      10.043   2.257  15.098  1.00  0.00     0.245  C
HETATM  120 O120 LIG A   1       9.199   2.405  14.171  1.00  0.00    -0.273  O
HETATM  121 C121 LIG A   1      11.316   4.382  14.676  1.00  0.00     0.072  C
HETATM  122 O122 LIG A   1      12.203   3.641  13.882  1.00  0.00    -0.394  O
HETATM  123 N123 LIG A   1      10.386   0.931  15.542  1.00  0.00    -0.342  N
HETATM  124 C124 LIG A   1      10.123  -0.271  14.737  1.00  0.00     0.109  C
HETATM  125 C125 LIG A   1      10.621  -1.505  15.452  1.00  0.00     0.243  C
HETATM  126 O126 LIG A   1      11.793  -1.516  15.912  1.00  0.00    -0.273  O
HETATM  127 C127 LIG A   1      10.753  -0.164  13.329  1.00  0.00    -0.015  C
HETATM  128 C128 LIG A   1      12.261   0.157  13.334  1.00  0.00    -0.005  C
HETATM  129 S129 LIG A   1      12.751   1.041  11.807  1.00  0.00    -0.165  S
HETATM  130 C130 LIG A   1      12.732  -0.416  10.715  1.00  0.00    -0.018  C
HETATM  131 N131 LIG A   1       9.784  -2.662  15.602  1.00  0.00    -0.341  N
HETATM  132 C132 LIG A   1      10.070  -3.696  16.606  1.00  0.00     0.127  C
HETATM  133 C133 LIG A   1       9.611  -5.050  16.137  1.00  0.00     0.326  C
HETATM  134 O134 LIG A   1      10.301  -6.071  16.393  1.00  0.00    -0.250  O
HETATM  135 C135 LIG A   1       9.436  -3.317  17.960  1.00  0.00    -0.020  C
HETATM  136 C136 LIG A   1       7.898  -3.372  17.949  1.00  0.00    -0.033  C
HETATM  137 C137 LIG A   1       7.304  -2.742  19.209  1.00  0.00     0.018  C
HETATM  138 N138 LIG A   1       5.846  -2.864  19.209  1.00  0.00    -0.357  N
HETATM  139 C139 LIG A   1       5.020  -2.147  20.135  1.00  0.00     0.185  C
HETATM  140 N140 LIG A   1       5.557  -1.391  21.040  1.00  0.00    -0.270  N
HETATM  141 N141 LIG A   1       3.598  -2.262  20.049  1.00  0.00    -0.370  N
HETATM  142 O142 LIG A   1       8.396  -5.196  15.474  1.00  0.00    -0.480  O
ENDROOT
TORSDOF 0
                                                                                                                                                 
ENDMDL
