MODEL 1
REMARK VINA RESULT:   -10.753      0.000      0.000
REMARK INTER + INTRA:         -10.753
REMARK INTER:                 -10.753
REMARK INTRA:                   0.000
REMARK UNBOUND:                 0.000
ROOT
HETATM    1 N1   LIG A   1      19.443  -8.419  16.041  1.00  0.00    -0.320  N
HETATM    2 C2   LIG A   1      18.737  -7.242  16.560  1.00  0.00     0.088  C
HETATM    3 C3   LIG A   1      17.289  -7.552  16.851  1.00  0.00     0.237  C
HETATM    4 O4   LIG A   1      16.660  -8.379  16.134  1.00  0.00    -0.273  O
HETATM    5 C5   LIG A   1      18.836  -6.070  15.571  1.00  0.00    -0.004  C
HETATM    6 C6   LIG A   1      20.264  -5.635  15.374  1.00  0.00    -0.046  C
HETATM    7 C7   LIG A   1      20.840  -4.688  16.238  1.00  0.00    -0.059  C
HETATM    8 C8   LIG A   1      21.050  -6.208  14.359  1.00  0.00    -0.059  C
HETATM    9 C9   LIG A   1      22.177  -4.308  16.078  1.00  0.00    -0.062  C
HETATM   10 C10  LIG A   1      22.386  -5.828  14.204  1.00  0.00    -0.062  C
HETATM   11 C11  LIG A   1      22.950  -4.879  15.062  1.00  0.00    -0.062  C
HETATM   12 N12  LIG A   1      16.612  -6.859  17.910  1.00  0.00    -0.343  N
HETATM   13 C13  LIG A   1      15.235  -7.183  18.297  1.00  0.00     0.110  C
HETATM   14 C14  LIG A   1      14.285  -6.502  17.344  1.00  0.00     0.243  C
HETATM   15 O15  LIG A   1      14.464  -5.292  17.040  1.00  0.00    -0.273  O
HETATM   16 C16  LIG A   1      14.957  -6.771  19.768  1.00  0.00    -0.018  C
HETATM   17 C17  LIG A   1      13.521  -7.129  20.191  1.00  0.00    -0.060  C
HETATM   18 C18  LIG A   1      15.949  -7.451  20.728  1.00  0.00    -0.060  C
HETATM   19 N19  LIG A   1      13.158  -7.221  16.822  1.00  0.00    -0.342  N
HETATM   20 C20  LIG A   1      12.399  -6.760  15.652  1.00  0.00     0.116  C
HETATM   21 C21  LIG A   1      11.524  -5.581  16.004  1.00  0.00     0.243  C
HETATM   22 O22  LIG A   1      11.354  -5.254  17.210  1.00  0.00    -0.273  O
HETATM   23 C23  LIG A   1      11.539  -7.905  15.082  1.00  0.00     0.056  C
HETATM   24 C24  LIG A   1      12.400  -9.023  14.567  1.00  0.00     0.220  C
HETATM   25 O25  LIG A   1      13.002  -8.891  13.468  1.00  0.00    -0.275  O
HETATM   26 N26  LIG A   1      12.568 -10.221  15.326  1.00  0.00    -0.370  N
HETATM   27 N27  LIG A   1      10.876  -4.838  14.958  1.00  0.00    -0.343  N
HETATM   28 C28  LIG A   1      10.167  -3.578  15.215  1.00  0.00     0.108  C
HETATM   29 C29  LIG A   1       8.952  -3.835  16.077  1.00  0.00     0.243  C
HETATM   30 O30  LIG A   1       8.240  -4.846  15.833  1.00  0.00    -0.273  O
HETATM   31 C31  LIG A   1       9.726  -2.918  13.890  1.00  0.00    -0.024  C
HETATM   32 C32  LIG A   1      10.919  -2.345  13.116  1.00  0.00    -0.050  C
HETATM   33 C33  LIG A   1      10.507  -1.804  11.743  1.00  0.00    -0.041  C
HETATM   34 C34  LIG A   1      11.724  -1.255  10.990  1.00  0.00    -0.008  C
HETATM   35 N35  LIG A   1      11.363  -0.921   9.615  1.00  0.00    -0.330  N
HETATM   36 N36  LIG A   1       8.564  -2.967  17.159  1.00  0.00    -0.343  N
HETATM   37 C37  LIG A   1       9.102  -1.625  17.413  1.00  0.00     0.108  C
HETATM   38 C38  LIG A   1       9.864  -1.629  18.712  1.00  0.00     0.243  C
HETATM   39 O39  LIG A   1       9.247  -1.650  19.811  1.00  0.00    -0.273  O
HETATM   40 C40  LIG A   1       7.960  -0.590  17.463  1.00  0.00    -0.021  C
HETATM   41 C41  LIG A   1       7.315  -0.336  16.080  1.00  0.00    -0.045  C
HETATM   42 C42  LIG A   1       5.926   0.291  16.256  1.00  0.00    -0.063  C
HETATM   43 C43  LIG A   1       8.190   0.577  15.206  1.00  0.00    -0.063  C
HETATM   44 N44  LIG A   1      11.295  -1.604  18.702  1.00  0.00    -0.342  N
HETATM   45 C45  LIG A   1      12.020  -0.582  19.464  1.00  0.00     0.116  C
HETATM   46 C46  LIG A   1      12.083   0.693  18.667  1.00  0.00     0.243  C
HETATM   47 O47  LIG A   1      11.906   0.656  17.419  1.00  0.00    -0.273  O
HETATM   48 C48  LIG A   1      13.438  -1.069  19.804  1.00  0.00     0.056  C
HETATM   49 C49  LIG A   1      13.391  -2.201  20.787  1.00  0.00     0.220  C
HETATM   50 O50  LIG A   1      13.451  -1.960  22.022  1.00  0.00    -0.275  O
HETATM   51 N51  LIG A   1      13.217  -3.543  20.338  1.00  0.00    -0.370  N
HETATM   52 N52  LIG A   1      12.358   1.942  19.319  1.00  0.00    -0.343  N
HETATM   53 C53  LIG A   1      12.359   3.218  18.596  1.00  0.00     0.108  C
HETATM   54 C54  LIG A   1      13.604   4.000  18.919  1.00  0.00     0.243  C
HETATM   55 O55  LIG A   1      13.914   4.218  20.122  1.00  0.00    -0.273  O
HETATM   56 C56  LIG A   1      11.099   4.034  18.935  1.00  0.00    -0.022  C
HETATM   57 C57  LIG A   1       9.833   3.413  18.322  1.00  0.00    -0.033  C
HETATM   58 C58  LIG A   1       8.623   4.338  18.505  1.00  0.00     0.018  C
HETATM   59 N59  LIG A   1       7.490   3.879  17.701  1.00  0.00    -0.357  N
HETATM   60 C60  LIG A   1       7.380   4.141  16.293  1.00  0.00     0.185  C
HETATM   61 N61  LIG A   1       8.367   4.678  15.647  1.00  0.00    -0.270  N
HETATM   62 N62  LIG A   1       6.173   3.810  15.602  1.00  0.00    -0.370  N
HETATM   63 N63  LIG A   1      14.406   4.532  17.853  1.00  0.00    -0.342  N
HETATM   64 C64  LIG A   1      15.674   5.244  18.059  1.00  0.00     0.110  C
HETATM   65 C65  LIG A   1      15.755   6.457  17.150  1.00  0.00     0.243  C
HETATM   66 O66  LIG A   1      14.760   6.774  16.443  1.00  0.00    -0.273  O
HETATM   67 C67  LIG A   1      16.884   4.268  17.890  1.00  0.00    -0.015  C
HETATM   68 C68  LIG A   1      17.045   3.408  19.154  1.00  0.00    -0.060  C
HETATM   69 C69  LIG A   1      16.801   3.336  16.653  1.00  0.00    -0.051  C
HETATM   70 C70  LIG A   1      16.874   4.072  15.320  1.00  0.00    -0.065  C
HETATM   71 N71  LIG A   1      16.924   7.295  17.142  1.00  0.00    -0.342  N
HETATM   72 C72  LIG A   1      17.011   8.504  16.304  1.00  0.00     0.110  C
HETATM   73 C73  LIG A   1      16.875   8.153  14.836  1.00  0.00     0.246  C
HETATM   74 O74  LIG A   1      17.369   7.074  14.411  1.00  0.00    -0.272  O
HETATM   75 C75  LIG A   1      18.308   9.323  16.579  1.00  0.00    -0.015  C
HETATM   76 C76  LIG A   1      18.276   9.925  17.996  1.00  0.00    -0.060  C
HETATM   77 C77  LIG A   1      19.604   8.506  16.336  1.00  0.00    -0.051  C
HETATM   78 C78  LIG A   1      20.858   9.380  16.312  1.00  0.00    -0.065  C
HETATM   79 N79  LIG A   1      16.174   9.014  13.919  1.00  0.00    -0.329  N
HETATM   80 C80  LIG A   1      15.220   8.517  12.936  1.00  0.00     0.111  C
HETATM   81 C81  LIG A   1      15.848   7.545  11.968  1.00  0.00     0.243  C
HETATM   82 O82  LIG A   1      16.948   7.831  11.420  1.00  0.00    -0.273  O
HETATM   83 C83  LIG A   1      14.692   9.756  12.211  1.00  0.00    -0.022  C
HETATM   84 C84  LIG A   1      15.033  10.938  13.114  1.00  0.00    -0.033  C
HETATM   85 C85  LIG A   1      16.172  10.467  14.008  1.00  0.00     0.021  C
HETATM   86 N86  LIG A   1      15.165   6.324  11.641  1.00  0.00    -0.342  N
HETATM   87 C87  LIG A   1      15.513   5.439  10.525  1.00  0.00     0.110  C
HETATM   88 C88  LIG A   1      16.868   4.815  10.752  1.00  0.00     0.243  C
HETATM   89 O89  LIG A   1      17.914   5.383  10.336  1.00  0.00    -0.273  O
HETATM   90 C90  LIG A   1      15.391   6.158   9.152  1.00  0.00    -0.018  C
HETATM   91 C91  LIG A   1      14.015   6.825   8.996  1.00  0.00    -0.060  C
HETATM   92 C92  LIG A   1      15.608   5.171   7.991  1.00  0.00    -0.060  C
HETATM   93 N93  LIG A   1      16.963   3.556  11.426  1.00  0.00    -0.343  N
HETATM   94 C94  LIG A   1      17.839   2.498  10.917  1.00  0.00     0.108  C
HETATM   95 C95  LIG A   1      17.261   1.939   9.641  1.00  0.00     0.243  C
HETATM   96 O96  LIG A   1      18.025   1.706   8.664  1.00  0.00    -0.273  O
HETATM   97 C97  LIG A   1      18.002   1.386  11.972  1.00  0.00    -0.024  C
HETATM   98 C98  LIG A   1      19.139   0.416  11.621  1.00  0.00    -0.050  C
HETATM   99 C99  LIG A   1      19.296  -0.660  12.702  1.00  0.00    -0.041  C
HETATM  100 C100 LIG A   1      20.412  -1.642  12.337  1.00  0.00    -0.008  C
HETATM  101 N101 LIG A   1      20.618  -2.596  13.420  1.00  0.00    -0.330  N
HETATM  102 N102 LIG A   1      15.857   1.646   9.545  1.00  0.00    -0.345  N
HETATM  103 C103 LIG A   1      15.264   1.029   8.363  1.00  0.00     0.097  C
HETATM  104 C104 LIG A   1      15.630  -0.422   8.299  1.00  0.00     0.240  C
HETATM  105 O105 LIG A   1      16.080  -0.904   7.224  1.00  0.00    -0.273  O
HETATM  106 N106 LIG A   1      15.435  -1.262   9.446  1.00  0.00    -0.342  N
HETATM  107 C107 LIG A   1      15.863  -2.664   9.478  1.00  0.00     0.112  C
HETATM  108 C108 LIG A   1      15.177  -3.384  10.613  1.00  0.00     0.243  C
HETATM  109 O109 LIG A   1      14.429  -4.367  10.355  1.00  0.00    -0.273  O
HETATM  110 C110 LIG A   1      17.399  -2.746   9.598  1.00  0.00     0.002  C
HETATM  111 C111 LIG A   1      17.889  -4.171   9.649  1.00  0.00    -0.045  C
HETATM  112 C112 LIG A   1      17.924  -4.950   8.481  1.00  0.00    -0.059  C
HETATM  113 C113 LIG A   1      18.276  -4.744  10.871  1.00  0.00    -0.059  C
HETATM  114 C114 LIG A   1      18.346  -6.283   8.537  1.00  0.00    -0.062  C
HETATM  115 C115 LIG A   1      18.692  -6.077  10.924  1.00  0.00    -0.062  C
HETATM  116 C116 LIG A   1      18.728  -6.847   9.757  1.00  0.00    -0.062  C
HETATM  117 N117 LIG A   1      15.371  -2.958  11.971  1.00  0.00    -0.340  N
HETATM  118 C118 LIG A   1      14.719  -3.613  13.110  1.00  0.00     0.131  C
HETATM  119 C119 LIG A   1      14.139  -2.606  14.080  1.00  0.00     0.245  C
HETATM  120 O120 LIG A   1      13.565  -3.031  15.120  1.00  0.00    -0.273  O
HETATM  121 C121 LIG A   1      15.727  -4.535  13.813  1.00  0.00     0.072  C
HETATM  122 O122 LIG A   1      16.679  -3.793  14.527  1.00  0.00    -0.394  O
HETATM  123 N123 LIG A   1      14.203  -1.189  13.831  1.00  0.00    -0.342  N
HETATM  124 C124 LIG A   1      13.993  -0.185  14.887  1.00  0.00     0.109  C
HETATM  125 C125 LIG A   1      14.152   1.209  14.328  1.00  0.00     0.243  C
HETATM  126 O126 LIG A   1      15.171   1.481  13.640  1.00  0.00    -0.273  O
HETATM  127 C127 LIG A   1      14.947  -0.407  16.082  1.00  0.00    -0.015  C
HETATM  128 C128 LIG A   1      16.439  -0.475  15.698  1.00  0.00    -0.005  C
HETATM  129 S129 LIG A   1      17.382  -1.494  16.891  1.00  0.00    -0.165  S
HETATM  130 C130 LIG A   1      17.443  -0.248  18.217  1.00  0.00    -0.018  C
HETATM  131 N131 LIG A   1      13.168   2.224  14.580  1.00  0.00    -0.341  N
HETATM  132 C132 LIG A   1      13.078   3.434  13.751  1.00  0.00     0.127  C
HETATM  133 C133 LIG A   1      12.582   4.606  14.554  1.00  0.00     0.326  C
HETATM  134 O134 LIG A   1      13.060   5.753  14.354  1.00  0.00    -0.250  O
HETATM  135 C135 LIG A   1      12.192   3.173  12.516  1.00  0.00    -0.020  C
HETATM  136 C136 LIG A   1      10.706   2.975  12.864  1.00  0.00    -0.033  C
HETATM  137 C137 LIG A   1       9.912   2.462  11.662  1.00  0.00     0.018  C
HETATM  138 N138 LIG A   1       8.492   2.343  11.995  1.00  0.00    -0.357  N
HETATM  139 C139 LIG A   1       7.564   1.656  11.146  1.00  0.00     0.185  C
HETATM  140 N140 LIG A   1       7.960   1.147  10.022  1.00  0.00    -0.270  N
HETATM  141 N141 LIG A   1       6.200   1.523  11.553  1.00  0.00    -0.370  N
HETATM  142 O142 LIG A   1      11.551   4.448  15.475  1.00  0.00    -0.480  O
ENDROOT
TORSDOF 0
                                                                                                                                                 
ENDMDL
MODEL 2
REMARK VINA RESULT:    -8.281      3.084     10.255
REMARK INTER + INTRA:          -8.281
REMARK INTER:                  -8.281
REMARK INTRA:                   0.000
REMARK UNBOUND:                 0.000
ROOT
HETATM    1 N1   LIG A   1      12.514 -11.506  15.375  1.00  0.00    -0.320  N
HETATM    2 C2   LIG A   1      12.492 -10.313  14.521  1.00  0.00     0.088  C
HETATM    3 C3   LIG A   1      13.847 -10.047  13.911  1.00  0.00     0.237  C
HETATM    4 O4   LIG A   1      14.898 -10.324  14.555  1.00  0.00    -0.273  O
HETATM    5 C5   LIG A   1      12.022  -9.084  15.315  1.00  0.00    -0.004  C
HETATM    6 C6   LIG A   1      10.611  -9.256  15.811  1.00  0.00    -0.046  C
HETATM    7 C7   LIG A   1       9.527  -8.890  14.996  1.00  0.00    -0.059  C
HETATM    8 C8   LIG A   1      10.363  -9.831  17.070  1.00  0.00    -0.059  C
HETATM    9 C9   LIG A   1       8.214  -9.081  15.441  1.00  0.00    -0.062  C
HETATM   10 C10  LIG A   1       9.050 -10.023  17.510  1.00  0.00    -0.062  C
HETATM   11 C11  LIG A   1       7.976  -9.649  16.696  1.00  0.00    -0.062  C
HETATM   12 N12  LIG A   1      13.938  -9.425  12.621  1.00  0.00    -0.343  N
HETATM   13 C13  LIG A   1      15.222  -9.225  11.941  1.00  0.00     0.110  C
HETATM   14 C14  LIG A   1      15.886  -7.993  12.501  1.00  0.00     0.243  C
HETATM   15 O15  LIG A   1      15.216  -6.937  12.657  1.00  0.00    -0.273  O
HETATM   16 C16  LIG A   1      15.028  -9.118  10.404  1.00  0.00    -0.018  C
HETATM   17 C17  LIG A   1      16.374  -8.933   9.679  1.00  0.00    -0.060  C
HETATM   18 C18  LIG A   1      14.326 -10.370   9.848  1.00  0.00    -0.060  C
HETATM   19 N19  LIG A   1      17.287  -8.014  12.811  1.00  0.00    -0.342  N
HETATM   20 C20  LIG A   1      17.925  -6.999  13.661  1.00  0.00     0.116  C
HETATM   21 C21  LIG A   1      18.076  -5.691  12.922  1.00  0.00     0.243  C
HETATM   22 O22  LIG A   1      17.873  -5.638  11.678  1.00  0.00    -0.273  O
HETATM   23 C23  LIG A   1      19.300  -7.493  14.150  1.00  0.00     0.056  C
HETATM   24 C24  LIG A   1      19.159  -8.700  15.033  1.00  0.00     0.220  C
HETATM   25 O25  LIG A   1      18.755  -8.562  16.219  1.00  0.00    -0.275  O
HETATM   26 N26  LIG A   1      19.447 -10.005  14.531  1.00  0.00    -0.370  N
HETATM   27 N27  LIG A   1      18.465  -4.509  13.639  1.00  0.00    -0.343  N
HETATM   28 C28  LIG A   1      18.451  -3.177  13.022  1.00  0.00     0.108  C
HETATM   29 C29  LIG A   1      19.485  -3.107  11.920  1.00  0.00     0.243  C
HETATM   30 O30  LIG A   1      20.615  -3.627  12.118  1.00  0.00    -0.273  O
HETATM   31 C31  LIG A   1      18.745  -2.083  14.072  1.00  0.00    -0.024  C
HETATM   32 C32  LIG A   1      17.568  -1.891  15.036  1.00  0.00    -0.050  C
HETATM   33 C33  LIG A   1      17.900  -0.900  16.157  1.00  0.00    -0.041  C
HETATM   34 C34  LIG A   1      16.710  -0.745  17.112  1.00  0.00    -0.008  C
HETATM   35 N35  LIG A   1      17.095   0.043  18.279  1.00  0.00    -0.330  N
HETATM   36 N36  LIG A   1      19.238  -2.458  10.658  1.00  0.00    -0.343  N
HETATM   37 C37  LIG A   1      18.103  -1.578  10.356  1.00  0.00     0.108  C
HETATM   38 C38  LIG A   1      17.228  -2.228   9.316  1.00  0.00     0.243  C
HETATM   39 O39  LIG A   1      17.593  -2.263   8.110  1.00  0.00    -0.273  O
HETATM   40 C40  LIG A   1      18.604  -0.208   9.856  1.00  0.00    -0.021  C
HETATM   41 C41  LIG A   1      19.274   0.632  10.969  1.00  0.00    -0.045  C
HETATM   42 C42  LIG A   1      20.159   1.718  10.346  1.00  0.00    -0.063  C
HETATM   43 C43  LIG A   1      18.232   1.280  11.895  1.00  0.00    -0.063  C
HETATM   44 N44  LIG A   1      15.975  -2.806   9.696  1.00  0.00    -0.342  N
HETATM   45 C45  LIG A   1      14.742  -2.412   9.005  1.00  0.00     0.116  C
HETATM   46 C46  LIG A   1      14.224  -1.127   9.593  1.00  0.00     0.243  C
HETATM   47 O47  LIG A   1      14.600  -0.770  10.742  1.00  0.00    -0.273  O
HETATM   48 C48  LIG A   1      13.682  -3.518   9.124  1.00  0.00     0.056  C
HETATM   49 C49  LIG A   1      14.089  -4.732   8.343  1.00  0.00     0.220  C
HETATM   50 O50  LIG A   1      13.720  -4.857   7.144  1.00  0.00    -0.275  O
HETATM   51 N51  LIG A   1      14.940  -5.716   8.926  1.00  0.00    -0.370  N
HETATM   52 N52  LIG A   1      13.294  -0.316   8.857  1.00  0.00    -0.343  N
HETATM   53 C53  LIG A   1      12.818   0.977   9.356  1.00  0.00     0.108  C
HETATM   54 C54  LIG A   1      11.317   1.054   9.256  1.00  0.00     0.243  C
HETATM   55 O55  LIG A   1      10.748   0.811   8.157  1.00  0.00    -0.273  O
HETATM   56 C56  LIG A   1      13.475   2.133   8.582  1.00  0.00    -0.022  C
HETATM   57 C57  LIG A   1      14.967   2.278   8.929  1.00  0.00    -0.033  C
HETATM   58 C58  LIG A   1      15.556   3.547   8.302  1.00  0.00     0.018  C
HETATM   59 N59  LIG A   1      16.888   3.826   8.841  1.00  0.00    -0.357  N
HETATM   60 C60  LIG A   1      17.093   4.454  10.116  1.00  0.00     0.185  C
HETATM   61 N61  LIG A   1      16.091   4.669  10.910  1.00  0.00    -0.270  N
HETATM   62 N62  LIG A   1      18.410   4.847  10.510  1.00  0.00    -0.370  N
HETATM   63 N63  LIG A   1      10.548   1.448  10.403  1.00  0.00    -0.342  N
HETATM   64 C64  LIG A   1       9.080   1.483  10.432  1.00  0.00     0.110  C
HETATM   65 C65  LIG A   1       8.593   2.736  11.139  1.00  0.00     0.243  C
HETATM   66 O66  LIG A   1       9.427   3.608  11.506  1.00  0.00    -0.273  O
HETATM   67 C67  LIG A   1       8.512   0.167  11.054  1.00  0.00    -0.015  C
HETATM   68 C68  LIG A   1       8.565  -0.968  10.019  1.00  0.00    -0.060  C
HETATM   69 C69  LIG A   1       9.223  -0.301  12.350  1.00  0.00    -0.051  C
HETATM   70 C70  LIG A   1       9.035   0.645  13.532  1.00  0.00    -0.065  C
HETATM   71 N71  LIG A   1       7.188   2.976  11.327  1.00  0.00    -0.342  N
HETATM   72 C72  LIG A   1       6.686   4.204  11.969  1.00  0.00     0.110  C
HETATM   73 C73  LIG A   1       7.210   4.324  13.386  1.00  0.00     0.246  C
HETATM   74 O74  LIG A   1       7.354   3.283  14.080  1.00  0.00    -0.272  O
HETATM   75 C75  LIG A   1       5.132   4.304  11.922  1.00  0.00    -0.015  C
HETATM   76 C76  LIG A   1       4.645   4.486  10.473  1.00  0.00    -0.060  C
HETATM   77 C77  LIG A   1       4.427   3.107  12.614  1.00  0.00    -0.051  C
HETATM   78 C78  LIG A   1       2.933   3.348  12.835  1.00  0.00    -0.065  C
HETATM   79 N79  LIG A   1       7.568   5.600  13.949  1.00  0.00    -0.329  N
HETATM   80 C80  LIG A   1       8.791   5.815  14.712  1.00  0.00     0.111  C
HETATM   81 C81  LIG A   1       8.859   4.947  15.944  1.00  0.00     0.243  C
HETATM   82 O82  LIG A   1       7.860   4.871  16.711  1.00  0.00    -0.273  O
HETATM   83 C83  LIG A   1       8.791   7.299  15.081  1.00  0.00    -0.022  C
HETATM   84 C84  LIG A   1       7.795   7.959  14.133  1.00  0.00    -0.033  C
HETATM   85 C85  LIG A   1       6.877   6.845  13.647  1.00  0.00     0.021  C
HETATM   86 N86  LIG A   1      10.076   4.252  16.259  1.00  0.00    -0.342  N
HETATM   87 C87  LIG A   1      10.371   3.614  17.546  1.00  0.00     0.110  C
HETATM   88 C88  LIG A   1       9.447   2.443  17.777  1.00  0.00     0.243  C
HETATM   89 O89  LIG A   1       8.341   2.603  18.361  1.00  0.00    -0.273  O
HETATM   90 C90  LIG A   1      10.368   4.637  18.717  1.00  0.00    -0.018  C
HETATM   91 C91  LIG A   1      11.278   5.836  18.407  1.00  0.00    -0.060  C
HETATM   92 C92  LIG A   1      10.831   3.976  20.028  1.00  0.00    -0.060  C
HETATM   93 N93  LIG A   1       9.841   1.136  17.346  1.00  0.00    -0.343  N
HETATM   94 C94  LIG A   1       9.657  -0.027  18.217  1.00  0.00     0.108  C
HETATM   95 C95  LIG A   1      10.631   0.050  19.367  1.00  0.00     0.243  C
HETATM   96 O96  LIG A   1      10.237  -0.229  20.532  1.00  0.00    -0.273  O
HETATM   97 C97  LIG A   1       9.861  -1.330  17.420  1.00  0.00    -0.024  C
HETATM   98 C98  LIG A   1       9.384  -2.565  18.195  1.00  0.00    -0.050  C
HETATM   99 C99  LIG A   1       9.571  -3.841  17.365  1.00  0.00    -0.041  C
HETATM  100 C100 LIG A   1       9.120  -5.075  18.151  1.00  0.00    -0.008  C
HETATM  101 N101 LIG A   1       9.207  -6.265  17.314  1.00  0.00    -0.330  N
HETATM  102 N102 LIG A   1      12.003   0.409  19.136  1.00  0.00    -0.345  N
HETATM  103 C103 LIG A   1      13.001   0.417  20.201  1.00  0.00     0.097  C
HETATM  104 C104 LIG A   1      13.371  -0.985  20.573  1.00  0.00     0.240  C
HETATM  105 O105 LIG A   1      13.382  -1.325  21.787  1.00  0.00    -0.273  O
HETATM  106 N106 LIG A   1      13.743  -1.924  19.553  1.00  0.00    -0.342  N
HETATM  107 C107 LIG A   1      14.021  -3.334  19.843  1.00  0.00     0.112  C
HETATM  108 C108 LIG A   1      14.766  -3.958  18.689  1.00  0.00     0.243  C
HETATM  109 O109 LIG A   1      15.917  -4.436  18.886  1.00  0.00    -0.273  O
HETATM  110 C110 LIG A   1      12.705  -4.081  20.142  1.00  0.00     0.002  C
HETATM  111 C111 LIG A   1      12.935  -5.543  20.433  1.00  0.00    -0.045  C
HETATM  112 C112 LIG A   1      13.461  -5.944  21.673  1.00  0.00    -0.059  C
HETATM  113 C113 LIG A   1      12.665  -6.512  19.454  1.00  0.00    -0.059  C
HETATM  114 C114 LIG A   1      13.708  -7.297  21.928  1.00  0.00    -0.062  C
HETATM  115 C115 LIG A   1      12.917  -7.863  19.711  1.00  0.00    -0.062  C
HETATM  116 C116 LIG A   1      13.437  -8.256  20.948  1.00  0.00    -0.062  C
HETATM  117 N117 LIG A   1      14.175  -4.010  17.380  1.00  0.00    -0.340  N
HETATM  118 C118 LIG A   1      14.859  -4.593  16.222  1.00  0.00     0.131  C
HETATM  119 C119 LIG A   1      14.733  -3.715  14.995  1.00  0.00     0.245  C
HETATM  120 O120 LIG A   1      15.259  -4.105  13.918  1.00  0.00    -0.273  O
HETATM  121 C121 LIG A   1      14.297  -5.997  15.952  1.00  0.00     0.072  C
HETATM  122 O122 LIG A   1      13.006  -5.930  15.409  1.00  0.00    -0.394  O
HETATM  123 N123 LIG A   1      14.057  -2.444  15.038  1.00  0.00    -0.342  N
HETATM  124 C124 LIG A   1      13.598  -1.746  13.828  1.00  0.00     0.109  C
HETATM  125 C125 LIG A   1      12.901  -0.457  14.194  1.00  0.00     0.243  C
HETATM  126 O126 LIG A   1      12.001  -0.475  15.075  1.00  0.00    -0.273  O
HETATM  127 C127 LIG A   1      12.674  -2.640  12.969  1.00  0.00    -0.015  C
HETATM  128 C128 LIG A   1      11.474  -3.230  13.735  1.00  0.00    -0.005  C
HETATM  129 S129 LIG A   1      10.933  -4.815  12.995  1.00  0.00    -0.165  S
HETATM  130 C130 LIG A   1      10.080  -4.088  11.561  1.00  0.00    -0.018  C
HETATM  131 N131 LIG A   1      13.240   0.779  13.546  1.00  0.00    -0.341  N
HETATM  132 C132 LIG A   1      12.890   2.080  14.132  1.00  0.00     0.127  C
HETATM  133 C133 LIG A   1      12.642   3.109  13.062  1.00  0.00     0.326  C
HETATM  134 O134 LIG A   1      11.724   3.957  13.207  1.00  0.00    -0.250  O
HETATM  135 C135 LIG A   1      13.985   2.535  15.118  1.00  0.00    -0.020  C
HETATM  136 C136 LIG A   1      15.312   2.900  14.429  1.00  0.00    -0.033  C
HETATM  137 C137 LIG A   1      16.439   3.089  15.444  1.00  0.00     0.018  C
HETATM  138 N138 LIG A   1      17.674   3.499  14.774  1.00  0.00    -0.357  N
HETATM  139 C139 LIG A   1      18.941   3.503  15.443  1.00  0.00     0.185  C
HETATM  140 N140 LIG A   1      19.020   3.175  16.695  1.00  0.00    -0.270  N
HETATM  141 N141 LIG A   1      20.121   3.859  14.720  1.00  0.00    -0.370  N
HETATM  142 O142 LIG A   1      13.460   3.173  11.939  1.00  0.00    -0.480  O
ENDROOT
TORSDOF 0
                                                                                                                                                 
ENDMDL
