MODEL 1
REMARK VINA RESULT:   -10.753      0.000      0.000
REMARK INTER + INTRA:         -10.753
REMARK INTER:                 -10.753
REMARK INTRA:                   0.000
REMARK UNBOUND:                 0.000
ROOT
HETATM    1 N1   LIG A   1      19.431  -8.412  16.028  1.00  0.00    -0.320  N
HETATM    2 C2   LIG A   1      18.730  -7.236  16.552  1.00  0.00     0.088  C
HETATM    3 C3   LIG A   1      17.281  -7.543  16.845  1.00  0.00     0.237  C
HETATM    4 O4   LIG A   1      16.649  -8.366  16.127  1.00  0.00    -0.273  O
HETATM    5 C5   LIG A   1      18.829  -6.060  15.567  1.00  0.00    -0.004  C
HETATM    6 C6   LIG A   1      20.258  -5.628  15.368  1.00  0.00    -0.046  C
HETATM    7 C7   LIG A   1      20.837  -4.685  16.234  1.00  0.00    -0.059  C
HETATM    8 C8   LIG A   1      21.039  -6.199  14.349  1.00  0.00    -0.059  C
HETATM    9 C9   LIG A   1      22.175  -4.309  16.072  1.00  0.00    -0.062  C
HETATM   10 C10  LIG A   1      22.377  -5.822  14.192  1.00  0.00    -0.062  C
HETATM   11 C11  LIG A   1      22.944  -4.877  15.052  1.00  0.00    -0.062  C
HETATM   12 N12  LIG A   1      16.608  -6.852  17.908  1.00  0.00    -0.343  N
HETATM   13 C13  LIG A   1      15.231  -7.174  18.298  1.00  0.00     0.110  C
HETATM   14 C14  LIG A   1      14.281  -6.488  17.349  1.00  0.00     0.243  C
HETATM   15 O15  LIG A   1      14.462  -5.277  17.048  1.00  0.00    -0.273  O
HETATM   16 C16  LIG A   1      14.958  -6.766  19.771  1.00  0.00    -0.018  C
HETATM   17 C17  LIG A   1      13.522  -7.122  20.196  1.00  0.00    -0.060  C
HETATM   18 C18  LIG A   1      15.950  -7.452  20.726  1.00  0.00    -0.060  C
HETATM   19 N19  LIG A   1      13.151  -7.202  16.827  1.00  0.00    -0.342  N
HETATM   20 C20  LIG A   1      12.390  -6.735  15.660  1.00  0.00     0.116  C
HETATM   21 C21  LIG A   1      11.519  -5.555  16.018  1.00  0.00     0.243  C
HETATM   22 O22  LIG A   1      11.353  -5.232  17.226  1.00  0.00    -0.273  O
HETATM   23 C23  LIG A   1      11.527  -7.876  15.089  1.00  0.00     0.056  C
HETATM   24 C24  LIG A   1      12.383  -8.995  14.568  1.00  0.00     0.220  C
HETATM   25 O25  LIG A   1      12.983  -8.861  13.468  1.00  0.00    -0.275  O
HETATM   26 N26  LIG A   1      12.550 -10.195  15.323  1.00  0.00    -0.370  N
HETATM   27 N27  LIG A   1      10.871  -4.808  14.976  1.00  0.00    -0.343  N
HETATM   28 C28  LIG A   1      10.165  -3.547  15.239  1.00  0.00     0.108  C
HETATM   29 C29  LIG A   1       8.951  -3.804  16.103  1.00  0.00     0.243  C
HETATM   30 O30  LIG A   1       8.237  -4.812  15.857  1.00  0.00    -0.273  O
HETATM   31 C31  LIG A   1       9.722  -2.882  13.917  1.00  0.00    -0.024  C
HETATM   32 C32  LIG A   1      10.915  -2.308  13.142  1.00  0.00    -0.050  C
HETATM   33 C33  LIG A   1      10.501  -1.761  11.772  1.00  0.00    -0.041  C
HETATM   34 C34  LIG A   1      11.718  -1.213  11.018  1.00  0.00    -0.008  C
HETATM   35 N35  LIG A   1      11.354  -0.874   9.645  1.00  0.00    -0.330  N
HETATM   36 N36  LIG A   1       8.568  -2.938  17.189  1.00  0.00    -0.343  N
HETATM   37 C37  LIG A   1       9.109  -1.598  17.446  1.00  0.00     0.108  C
HETATM   38 C38  LIG A   1       9.875  -1.608  18.743  1.00  0.00     0.243  C
HETATM   39 O39  LIG A   1       9.260  -1.631  19.844  1.00  0.00    -0.273  O
HETATM   40 C40  LIG A   1       7.970  -0.560  17.502  1.00  0.00    -0.021  C
HETATM   41 C41  LIG A   1       7.323  -0.300  16.121  1.00  0.00    -0.045  C
HETATM   42 C42  LIG A   1       5.936   0.329  16.303  1.00  0.00    -0.063  C
HETATM   43 C43  LIG A   1       8.197   0.613  15.248  1.00  0.00    -0.063  C
HETATM   44 N44  LIG A   1      11.306  -1.586  18.730  1.00  0.00    -0.342  N
HETATM   45 C45  LIG A   1      12.035  -0.569  19.494  1.00  0.00     0.116  C
HETATM   46 C46  LIG A   1      12.099   0.708  18.700  1.00  0.00     0.243  C
HETATM   47 O47  LIG A   1      11.919   0.676  17.453  1.00  0.00    -0.273  O
HETATM   48 C48  LIG A   1      13.452  -1.060  19.829  1.00  0.00     0.056  C
HETATM   49 C49  LIG A   1      13.405  -2.196  20.808  1.00  0.00     0.220  C
HETATM   50 O50  LIG A   1      13.468  -1.959  22.044  1.00  0.00    -0.275  O
HETATM   51 N51  LIG A   1      13.227  -3.536  20.355  1.00  0.00    -0.370  N
HETATM   52 N52  LIG A   1      12.379   1.955  19.356  1.00  0.00    -0.343  N
HETATM   53 C53  LIG A   1      12.381   3.233  18.637  1.00  0.00     0.108  C
HETATM   54 C54  LIG A   1      13.629   4.011  18.961  1.00  0.00     0.243  C
HETATM   55 O55  LIG A   1      13.942   4.224  20.164  1.00  0.00    -0.273  O
HETATM   56 C56  LIG A   1      11.124   4.051  18.983  1.00  0.00    -0.022  C
HETATM   57 C57  LIG A   1       9.854   3.434  18.370  1.00  0.00    -0.033  C
HETATM   58 C58  LIG A   1       8.648   4.362  18.559  1.00  0.00     0.018  C
HETATM   59 N59  LIG A   1       7.511   3.908  17.756  1.00  0.00    -0.357  N
HETATM   60 C60  LIG A   1       7.398   4.175  16.349  1.00  0.00     0.185  C
HETATM   61 N61  LIG A   1       8.385   4.712  15.702  1.00  0.00    -0.270  N
HETATM   62 N62  LIG A   1       6.189   3.849  15.660  1.00  0.00    -0.370  N
HETATM   63 N63  LIG A   1      14.430   4.545  17.894  1.00  0.00    -0.342  N
HETATM   64 C64  LIG A   1      15.700   5.253  18.099  1.00  0.00     0.110  C
HETATM   65 C65  LIG A   1      15.781   6.469  17.195  1.00  0.00     0.243  C
HETATM   66 O66  LIG A   1      14.785   6.790  16.491  1.00  0.00    -0.273  O
HETATM   67 C67  LIG A   1      16.907   4.275  17.925  1.00  0.00    -0.015  C
HETATM   68 C68  LIG A   1      17.069   3.410  19.185  1.00  0.00    -0.060  C
HETATM   69 C69  LIG A   1      16.818   3.347  16.685  1.00  0.00    -0.051  C
HETATM   70 C70  LIG A   1      16.891   4.087  15.354  1.00  0.00    -0.065  C
HETATM   71 N71  LIG A   1      16.952   7.303  17.186  1.00  0.00    -0.342  N
HETATM   72 C72  LIG A   1      17.040   8.515  16.352  1.00  0.00     0.110  C
HETATM   73 C73  LIG A   1      16.900   8.169  14.883  1.00  0.00     0.246  C
HETATM   74 O74  LIG A   1      17.390   7.091  14.454  1.00  0.00    -0.272  O
HETATM   75 C75  LIG A   1      18.339   9.331  16.627  1.00  0.00    -0.015  C
HETATM   76 C76  LIG A   1      18.313   9.928  18.046  1.00  0.00    -0.060  C
HETATM   77 C77  LIG A   1      19.634   8.511  16.378  1.00  0.00    -0.051  C
HETATM   78 C78  LIG A   1      20.890   9.382  16.354  1.00  0.00    -0.065  C
HETATM   79 N79  LIG A   1      16.200   9.035  13.971  1.00  0.00    -0.329  N
HETATM   80 C80  LIG A   1      15.242   8.544  12.988  1.00  0.00     0.111  C
HETATM   81 C81  LIG A   1      15.865   7.574  12.016  1.00  0.00     0.243  C
HETATM   82 O82  LIG A   1      16.965   7.858  11.467  1.00  0.00    -0.273  O
HETATM   83 C83  LIG A   1      14.715   9.786  12.269  1.00  0.00    -0.022  C
HETATM   84 C84  LIG A   1      15.061  10.964  13.175  1.00  0.00    -0.033  C
HETATM   85 C85  LIG A   1      16.201  10.488  14.065  1.00  0.00     0.021  C
HETATM   86 N86  LIG A   1      15.178   6.355  11.687  1.00  0.00    -0.342  N
HETATM   87 C87  LIG A   1      15.522   5.473  10.567  1.00  0.00     0.110  C
HETATM   88 C88  LIG A   1      16.875   4.845  10.788  1.00  0.00     0.243  C
HETATM   89 O89  LIG A   1      17.922   5.412  10.372  1.00  0.00    -0.273  O
HETATM   90 C90  LIG A   1      15.398   6.197   9.196  1.00  0.00    -0.018  C
HETATM   91 C91  LIG A   1      14.023   6.868   9.046  1.00  0.00    -0.060  C
HETATM   92 C92  LIG A   1      15.611   5.213   8.032  1.00  0.00    -0.060  C
HETATM   93 N93  LIG A   1      16.969   3.584  11.458  1.00  0.00    -0.343  N
HETATM   94 C94  LIG A   1      17.841   2.525  10.944  1.00  0.00     0.108  C
HETATM   95 C95  LIG A   1      17.259   1.972   9.667  1.00  0.00     0.243  C
HETATM   96 O96  LIG A   1      18.020   1.741   8.688  1.00  0.00    -0.273  O
HETATM   97 C97  LIG A   1      18.004   1.409  11.994  1.00  0.00    -0.024  C
HETATM   98 C98  LIG A   1      19.138   0.438  11.638  1.00  0.00    -0.050  C
HETATM   99 C99  LIG A   1      19.295  -0.642  12.715  1.00  0.00    -0.041  C
HETATM  100 C100 LIG A   1      20.407  -1.626  12.344  1.00  0.00    -0.008  C
HETATM  101 N101 LIG A   1      20.615  -2.584  13.423  1.00  0.00    -0.330  N
HETATM  102 N102 LIG A   1      15.855   1.683   9.573  1.00  0.00    -0.345  N
HETATM  103 C103 LIG A   1      15.258   1.071   8.390  1.00  0.00     0.097  C
HETATM  104 C104 LIG A   1      15.619  -0.381   8.321  1.00  0.00     0.240  C
HETATM  105 O105 LIG A   1      16.066  -0.860   7.243  1.00  0.00    -0.273  O
HETATM  106 N106 LIG A   1      15.426  -1.224   9.466  1.00  0.00    -0.342  N
HETATM  107 C107 LIG A   1      15.850  -2.627   9.492  1.00  0.00     0.112  C
HETATM  108 C108 LIG A   1      15.164  -3.349  10.627  1.00  0.00     0.243  C
HETATM  109 O109 LIG A   1      14.414  -4.330  10.367  1.00  0.00    -0.273  O
HETATM  110 C110 LIG A   1      17.386  -2.713   9.608  1.00  0.00     0.002  C
HETATM  111 C111 LIG A   1      17.873  -4.139   9.653  1.00  0.00    -0.045  C
HETATM  112 C112 LIG A   1      17.903  -4.915   8.483  1.00  0.00    -0.059  C
HETATM  113 C113 LIG A   1      18.261  -4.718  10.872  1.00  0.00    -0.059  C
HETATM  114 C114 LIG A   1      18.322  -6.249   8.533  1.00  0.00    -0.062  C
HETATM  115 C115 LIG A   1      18.674  -6.052  10.920  1.00  0.00    -0.062  C
HETATM  116 C116 LIG A   1      18.706  -6.817   9.750  1.00  0.00    -0.062  C
HETATM  117 N117 LIG A   1      15.362  -2.928  11.986  1.00  0.00    -0.340  N
HETATM  118 C118 LIG A   1      14.712  -3.586  13.124  1.00  0.00     0.131  C
HETATM  119 C119 LIG A   1      14.137  -2.580  14.099  1.00  0.00     0.245  C
HETATM  120 O120 LIG A   1      13.564  -3.007  15.138  1.00  0.00    -0.273  O
HETATM  121 C121 LIG A   1      15.720  -4.512  13.821  1.00  0.00     0.072  C
HETATM  122 O122 LIG A   1      16.675  -3.775  14.535  1.00  0.00    -0.394  O
HETATM  123 N123 LIG A   1      14.203  -1.163  13.854  1.00  0.00    -0.342  N
HETATM  124 C124 LIG A   1      13.998  -0.162  14.913  1.00  0.00     0.109  C
HETATM  125 C125 LIG A   1      14.159   1.234  14.358  1.00  0.00     0.243  C
HETATM  126 O126 LIG A   1      15.177   1.506  13.670  1.00  0.00    -0.273  O
HETATM  127 C127 LIG A   1      14.955  -0.390  16.106  1.00  0.00    -0.015  C
HETATM  128 C128 LIG A   1      16.445  -0.460  15.717  1.00  0.00    -0.005  C
HETATM  129 S129 LIG A   1      17.388  -1.485  16.905  1.00  0.00    -0.165  S
HETATM  130 C130 LIG A   1      17.456  -0.244  18.235  1.00  0.00    -0.018  C
HETATM  131 N131 LIG A   1      13.179   2.250  14.616  1.00  0.00    -0.341  N
HETATM  132 C132 LIG A   1      13.089   3.464  13.792  1.00  0.00     0.127  C
HETATM  133 C133 LIG A   1      12.598   4.634  14.600  1.00  0.00     0.326  C
HETATM  134 O134 LIG A   1      13.079   5.780  14.403  1.00  0.00    -0.250  O
HETATM  135 C135 LIG A   1      12.200   3.208  12.558  1.00  0.00    -0.020  C
HETATM  136 C136 LIG A   1      10.714   3.013  12.908  1.00  0.00    -0.033  C
HETATM  137 C137 LIG A   1       9.916   2.506  11.707  1.00  0.00     0.018  C
HETATM  138 N138 LIG A   1       8.497   2.390  12.042  1.00  0.00    -0.357  N
HETATM  139 C139 LIG A   1       7.566   1.707  11.194  1.00  0.00     0.185  C
HETATM  140 N140 LIG A   1       7.957   1.201  10.067  1.00  0.00    -0.270  N
HETATM  141 N141 LIG A   1       6.202   1.576  11.603  1.00  0.00    -0.370  N
HETATM  142 O142 LIG A   1      11.568   4.475  15.522  1.00  0.00    -0.480  O
ENDROOT
TORSDOF 0
                                                                                                                                                 
ENDMDL
MODEL 2
REMARK VINA RESULT:    -9.063      3.202     11.600
REMARK INTER + INTRA:          -9.063
REMARK INTER:                  -9.063
REMARK INTRA:                   0.000
REMARK UNBOUND:                 0.000
ROOT
HETATM    1 N1   LIG A   1      20.038   2.949   9.143  1.00  0.00    -0.320  N
HETATM    2 C2   LIG A   1      18.635   2.799   9.544  1.00  0.00     0.088  C
HETATM    3 C3   LIG A   1      18.326   3.604  10.783  1.00  0.00     0.237  C
HETATM    4 O4   LIG A   1      19.207   3.760  11.674  1.00  0.00    -0.273  O
HETATM    5 C5   LIG A   1      18.292   1.319   9.779  1.00  0.00    -0.004  C
HETATM    6 C6   LIG A   1      18.445   0.511   8.518  1.00  0.00    -0.046  C
HETATM    7 C7   LIG A   1      17.374   0.404   7.614  1.00  0.00    -0.059  C
HETATM    8 C8   LIG A   1      19.673  -0.099   8.207  1.00  0.00    -0.059  C
HETATM    9 C9   LIG A   1      17.525  -0.317   6.424  1.00  0.00    -0.062  C
HETATM   10 C10  LIG A   1      19.820  -0.816   7.016  1.00  0.00    -0.062  C
HETATM   11 C11  LIG A   1      18.748  -0.926   6.125  1.00  0.00    -0.062  C
HETATM   12 N12  LIG A   1      17.009   4.143  10.972  1.00  0.00    -0.343  N
HETATM   13 C13  LIG A   1      16.677   5.008  12.109  1.00  0.00     0.110  C
HETATM   14 C14  LIG A   1      16.419   4.147  13.320  1.00  0.00     0.243  C
HETATM   15 O15  LIG A   1      15.687   3.126  13.218  1.00  0.00    -0.273  O
HETATM   16 C16  LIG A   1      15.458   5.913  11.784  1.00  0.00    -0.018  C
HETATM   17 C17  LIG A   1      15.117   6.841  12.964  1.00  0.00    -0.060  C
HETATM   18 C18  LIG A   1      15.723   6.766  10.532  1.00  0.00    -0.060  C
HETATM   19 N19  LIG A   1      16.971   4.517  14.592  1.00  0.00    -0.342  N
HETATM   20 C20  LIG A   1      17.058   3.580  15.720  1.00  0.00     0.116  C
HETATM   21 C21  LIG A   1      15.701   3.352  16.340  1.00  0.00     0.243  C
HETATM   22 O22  LIG A   1      14.726   4.085  16.021  1.00  0.00    -0.273  O
HETATM   23 C23  LIG A   1      18.044   4.105  16.781  1.00  0.00     0.056  C
HETATM   24 C24  LIG A   1      19.441   4.179  16.234  1.00  0.00     0.220  C
HETATM   25 O25  LIG A   1      20.112   3.122  16.093  1.00  0.00    -0.275  O
HETATM   26 N26  LIG A   1      20.003   5.431  15.841  1.00  0.00    -0.370  N
HETATM   27 N27  LIG A   1      15.527   2.302  17.305  1.00  0.00    -0.343  N
HETATM   28 C28  LIG A   1      14.204   1.908  17.806  1.00  0.00     0.108  C
HETATM   29 C29  LIG A   1      13.598   3.037  18.608  1.00  0.00     0.243  C
HETATM   30 O30  LIG A   1      14.337   3.678  19.404  1.00  0.00    -0.273  O
HETATM   31 C31  LIG A   1      14.307   0.646  18.691  1.00  0.00    -0.024  C
HETATM   32 C32  LIG A   1      14.609  -0.607  17.861  1.00  0.00    -0.050  C
HETATM   33 C33  LIG A   1      14.839  -1.839  18.742  1.00  0.00    -0.041  C
HETATM   34 C34  LIG A   1      15.156  -3.068  17.883  1.00  0.00    -0.008  C
HETATM   35 N35  LIG A   1      15.564  -4.187  18.728  1.00  0.00    -0.330  N
HETATM   36 N36  LIG A   1      12.208   3.404  18.514  1.00  0.00    -0.343  N
HETATM   37 C37  LIG A   1      11.157   2.614  17.862  1.00  0.00     0.108  C
HETATM   38 C38  LIG A   1      10.641   3.363  16.661  1.00  0.00     0.243  C
HETATM   39 O39  LIG A   1       9.878   4.355  16.811  1.00  0.00    -0.273  O
HETATM   40 C40  LIG A   1      10.010   2.326  18.851  1.00  0.00    -0.021  C
HETATM   41 C41  LIG A   1      10.409   1.328  19.964  1.00  0.00    -0.045  C
HETATM   42 C42  LIG A   1       9.445   1.453  21.150  1.00  0.00    -0.063  C
HETATM   43 C43  LIG A   1      10.415  -0.121  19.451  1.00  0.00    -0.063  C
HETATM   44 N44  LIG A   1      11.011   2.945  15.343  1.00  0.00    -0.342  N
HETATM   45 C45  LIG A   1       9.979   2.676  14.337  1.00  0.00     0.116  C
HETATM   46 C46  LIG A   1       9.440   1.283  14.528  1.00  0.00     0.243  C
HETATM   47 O47  LIG A   1      10.117   0.436  15.171  1.00  0.00    -0.273  O
HETATM   48 C48  LIG A   1      10.553   2.836  12.921  1.00  0.00     0.056  C
HETATM   49 C49  LIG A   1      10.881   4.272  12.638  1.00  0.00     0.220  C
HETATM   50 O50  LIG A   1      10.018   5.016  12.099  1.00  0.00    -0.275  O
HETATM   51 N51  LIG A   1      12.139   4.818  13.029  1.00  0.00    -0.370  N
HETATM   52 N52  LIG A   1       8.169   0.915  13.970  1.00  0.00    -0.343  N
HETATM   53 C53  LIG A   1       7.571  -0.405  14.190  1.00  0.00     0.108  C
HETATM   54 C54  LIG A   1       7.111  -0.993  12.882  1.00  0.00     0.243  C
HETATM   55 O55  LIG A   1       6.353  -0.327  12.125  1.00  0.00    -0.273  O
HETATM   56 C56  LIG A   1       6.403  -0.312  15.186  1.00  0.00    -0.022  C
HETATM   57 C57  LIG A   1       6.892  -0.030  16.617  1.00  0.00    -0.033  C
HETATM   58 C58  LIG A   1       5.738  -0.134  17.622  1.00  0.00     0.018  C
HETATM   59 N59  LIG A   1       6.243  -0.130  18.996  1.00  0.00    -0.357  N
HETATM   60 C60  LIG A   1       6.793  -1.298  19.625  1.00  0.00     0.185  C
HETATM   61 N61  LIG A   1       6.997  -2.378  18.937  1.00  0.00    -0.270  N
HETATM   62 N62  LIG A   1       7.114  -1.270  21.017  1.00  0.00    -0.370  N
HETATM   63 N63  LIG A   1       7.504  -2.329  12.526  1.00  0.00    -0.342  N
HETATM   64 C64  LIG A   1       7.172  -2.966  11.246  1.00  0.00     0.110  C
HETATM   65 C65  LIG A   1       6.748  -4.407  11.465  1.00  0.00     0.243  C
HETATM   66 O66  LIG A   1       6.626  -4.849  12.640  1.00  0.00    -0.273  O
HETATM   67 C67  LIG A   1       8.357  -2.821  10.237  1.00  0.00    -0.015  C
HETATM   68 C68  LIG A   1       8.371  -1.404   9.643  1.00  0.00    -0.060  C
HETATM   69 C69  LIG A   1       9.757  -3.133  10.828  1.00  0.00    -0.051  C
HETATM   70 C70  LIG A   1       9.943  -4.590  11.238  1.00  0.00    -0.065  C
HETATM   71 N71  LIG A   1       6.409  -5.253  10.353  1.00  0.00    -0.342  N
HETATM   72 C72  LIG A   1       5.951  -6.641  10.539  1.00  0.00     0.110  C
HETATM   73 C73  LIG A   1       7.009  -7.468  11.242  1.00  0.00     0.246  C
HETATM   74 O74  LIG A   1       8.226  -7.251  10.996  1.00  0.00    -0.272  O
HETATM   75 C75  LIG A   1       5.503  -7.302   9.201  1.00  0.00    -0.015  C
HETATM   76 C76  LIG A   1       4.231  -6.622   8.661  1.00  0.00    -0.060  C
HETATM   77 C77  LIG A   1       6.629  -7.334   8.134  1.00  0.00    -0.051  C
HETATM   78 C78  LIG A   1       6.293  -8.238   6.947  1.00  0.00    -0.065  C
HETATM   79 N79  LIG A   1       6.656  -8.482  12.201  1.00  0.00    -0.329  N
HETATM   80 C80  LIG A   1       7.338  -8.636  13.480  1.00  0.00     0.111  C
HETATM   81 C81  LIG A   1       8.810  -8.922  13.314  1.00  0.00     0.243  C
HETATM   82 O82  LIG A   1       9.187  -9.804  12.496  1.00  0.00    -0.273  O
HETATM   83 C83  LIG A   1       6.628  -9.790  14.190  1.00  0.00    -0.022  C
HETATM   84 C84  LIG A   1       5.288  -9.949  13.478  1.00  0.00    -0.033  C
HETATM   85 C85  LIG A   1       5.465  -9.313  12.105  1.00  0.00     0.021  C
HETATM   86 N86  LIG A   1       9.768  -8.219  14.123  1.00  0.00    -0.342  N
HETATM   87 C87  LIG A   1      11.179  -8.590  14.268  1.00  0.00     0.110  C
HETATM   88 C88  LIG A   1      11.907  -8.411  12.959  1.00  0.00     0.243  C
HETATM   89 O89  LIG A   1      11.974  -9.357  12.127  1.00  0.00    -0.273  O
HETATM   90 C90  LIG A   1      11.348 -10.012  14.875  1.00  0.00    -0.018  C
HETATM   91 C91  LIG A   1      10.541 -10.159  16.175  1.00  0.00    -0.060  C
HETATM   92 C92  LIG A   1      12.829 -10.317  15.161  1.00  0.00    -0.060  C
HETATM   93 N93  LIG A   1      12.544  -7.163  12.669  1.00  0.00    -0.343  N
HETATM   94 C94  LIG A   1      13.894  -7.126  12.102  1.00  0.00     0.108  C
HETATM   95 C95  LIG A   1      14.890  -7.562  13.148  1.00  0.00     0.243  C
HETATM   96 O96  LIG A   1      15.823  -8.347  12.827  1.00  0.00    -0.273  O
HETATM   97 C97  LIG A   1      14.223  -5.707  11.597  1.00  0.00    -0.024  C
HETATM   98 C98  LIG A   1      15.485  -5.680  10.725  1.00  0.00    -0.050  C
HETATM   99 C99  LIG A   1      15.769  -4.262  10.213  1.00  0.00    -0.041  C
HETATM  100 C100 LIG A   1      17.044  -4.232   9.367  1.00  0.00    -0.008  C
HETATM  101 N101 LIG A   1      17.245  -2.902   8.804  1.00  0.00    -0.330  N
HETATM  102 N102 LIG A   1      14.796  -7.064  14.493  1.00  0.00    -0.345  N
HETATM  103 C103 LIG A   1      15.781  -7.390  15.520  1.00  0.00     0.097  C
HETATM  104 C104 LIG A   1      17.054  -6.641  15.271  1.00  0.00     0.240  C
HETATM  105 O105 LIG A   1      18.153  -7.259  15.288  1.00  0.00    -0.273  O
HETATM  106 N106 LIG A   1      17.021  -5.224  15.049  1.00  0.00    -0.342  N
HETATM  107 C107 LIG A   1      18.219  -4.452  14.704  1.00  0.00     0.112  C
HETATM  108 C108 LIG A   1      17.966  -2.982  14.935  1.00  0.00     0.243  C
HETATM  109 O109 LIG A   1      18.681  -2.359  15.767  1.00  0.00    -0.273  O
HETATM  110 C110 LIG A   1      18.629  -4.737  13.244  1.00  0.00     0.002  C
HETATM  111 C111 LIG A   1      19.851  -3.954  12.835  1.00  0.00    -0.045  C
HETATM  112 C112 LIG A   1      21.124  -4.342  13.284  1.00  0.00    -0.059  C
HETATM  113 C113 LIG A   1      19.724  -2.806  12.036  1.00  0.00    -0.059  C
HETATM  114 C114 LIG A   1      22.253  -3.594  12.933  1.00  0.00    -0.062  C
HETATM  115 C115 LIG A   1      20.853  -2.059  11.691  1.00  0.00    -0.062  C
HETATM  116 C116 LIG A   1      22.117  -2.453  12.138  1.00  0.00    -0.062  C
HETATM  117 N117 LIG A   1      16.926  -2.298  14.217  1.00  0.00    -0.340  N
HETATM  118 C118 LIG A   1      16.630  -0.875  14.411  1.00  0.00     0.131  C
HETATM  119 C119 LIG A   1      15.142  -0.624  14.531  1.00  0.00     0.245  C
HETATM  120 O120 LIG A   1      14.741   0.563  14.682  1.00  0.00    -0.273  O
HETATM  121 C121 LIG A   1      17.232  -0.066  13.253  1.00  0.00     0.072  C
HETATM  122 O122 LIG A   1      16.508  -0.261  12.069  1.00  0.00    -0.394  O
HETATM  123 N123 LIG A   1      14.185  -1.700  14.505  1.00  0.00    -0.342  N
HETATM  124 C124 LIG A   1      12.752  -1.485  14.251  1.00  0.00     0.109  C
HETATM  125 C125 LIG A   1      12.012  -2.802  14.256  1.00  0.00     0.243  C
HETATM  126 O126 LIG A   1      12.456  -3.757  13.567  1.00  0.00    -0.273  O
HETATM  127 C127 LIG A   1      12.515  -0.730  12.922  1.00  0.00    -0.015  C
HETATM  128 C128 LIG A   1      13.185  -1.383  11.696  1.00  0.00    -0.005  C
HETATM  129 S129 LIG A   1      13.573  -0.135  10.415  1.00  0.00    -0.165  S
HETATM  130 C130 LIG A   1      11.871   0.055   9.795  1.00  0.00    -0.018  C
HETATM  131 N131 LIG A   1      10.810  -2.972  15.023  1.00  0.00    -0.341  N
HETATM  132 C132 LIG A   1      10.298  -4.305  15.369  1.00  0.00     0.127  C
HETATM  133 C133 LIG A   1       8.796  -4.300  15.469  1.00  0.00     0.326  C
HETATM  134 O134 LIG A   1       8.136  -5.288  15.053  1.00  0.00    -0.250  O
HETATM  135 C135 LIG A   1      10.954  -4.809  16.671  1.00  0.00    -0.020  C
HETATM  136 C136 LIG A   1      10.516  -4.021  17.918  1.00  0.00    -0.033  C
HETATM  137 C137 LIG A   1      11.376  -4.369  19.134  1.00  0.00     0.018  C
HETATM  138 N138 LIG A   1      10.901  -3.660  20.322  1.00  0.00    -0.357  N
HETATM  139 C139 LIG A   1      11.665  -3.604  21.533  1.00  0.00     0.185  C
HETATM  140 N140 LIG A   1      12.798  -4.227  21.621  1.00  0.00    -0.270  N
HETATM  141 N141 LIG A   1      11.176  -2.847  22.642  1.00  0.00    -0.370  N
HETATM  142 O142 LIG A   1       8.130  -3.241  16.075  1.00  0.00    -0.480  O
ENDROOT
TORSDOF 0
                                                                                                                                                 
ENDMDL
