ROOT
HETATM    1 N1   LIG A   1      -8.754  -2.333   4.316  1.00  0.00    -0.320  N
HETATM    2 C2   LIG A   1      -7.454  -1.654   4.285  1.00  0.00     0.088  C
HETATM    3 C3   LIG A   1      -7.576  -0.259   3.718  1.00  0.00     0.237  C
HETATM    4 O4   LIG A   1      -8.385  -0.023   2.779  1.00  0.00    -0.273  O
HETATM    5 C5   LIG A   1      -6.432  -2.470   3.477  1.00  0.00    -0.004  C
HETATM    6 C6   LIG A   1      -6.169  -3.810   4.114  1.00  0.00    -0.046  C
HETATM    7 C7   LIG A   1      -5.155  -3.948   5.078  1.00  0.00    -0.059  C
HETATM    8 C8   LIG A   1      -6.962  -4.922   3.784  1.00  0.00    -0.059  C
HETATM    9 C9   LIG A   1      -4.927  -5.186   5.687  1.00  0.00    -0.062  C
HETATM   10 C10  LIG A   1      -6.735  -6.156   4.401  1.00  0.00    -0.062  C
HETATM   11 C11  LIG A   1      -5.715  -6.289   5.349  1.00  0.00    -0.062  C
HETATM   12 N12  LIG A   1      -6.730   0.787   4.216  1.00  0.00    -0.343  N
HETATM   13 C13  LIG A   1      -6.973   2.203   3.912  1.00  0.00     0.110  C
HETATM   14 C14  LIG A   1      -6.379   2.530   2.564  1.00  0.00     0.243  C
HETATM   15 O15  LIG A   1      -5.272   2.028   2.229  1.00  0.00    -0.273  O
HETATM   16 C16  LIG A   1      -6.392   3.112   5.030  1.00  0.00    -0.018  C
HETATM   17 C17  LIG A   1      -6.664   4.602   4.754  1.00  0.00    -0.060  C
HETATM   18 C18  LIG A   1      -6.981   2.742   6.403  1.00  0.00    -0.060  C
HETATM   19 N19  LIG A   1      -7.048   3.452   1.689  1.00  0.00    -0.342  N
HETATM   20 C20  LIG A   1      -6.676   3.629   0.279  1.00  0.00     0.116  C
HETATM   21 C21  LIG A   1      -5.337   4.315   0.148  1.00  0.00     0.243  C
HETATM   22 O22  LIG A   1      -4.842   4.939   1.126  1.00  0.00    -0.273  O
HETATM   23 C23  LIG A   1      -7.754   4.439  -0.470  1.00  0.00     0.056  C
HETATM   24 C24  LIG A   1      -9.037   3.665  -0.575  1.00  0.00     0.220  C
HETATM   25 O25  LIG A   1      -9.147   2.755  -1.439  1.00  0.00    -0.275  O
HETATM   26 N26  LIG A   1     -10.121   3.927   0.316  1.00  0.00    -0.370  N
HETATM   27 N27  LIG A   1      -4.648   4.284  -1.112  1.00  0.00    -0.343  N
HETATM   28 C28  LIG A   1      -3.257   4.731  -1.271  1.00  0.00     0.108  C
HETATM   29 C29  LIG A   1      -3.152   6.222  -1.045  1.00  0.00     0.243  C
HETATM   30 O30  LIG A   1      -4.119   6.958  -1.379  1.00  0.00    -0.273  O
HETATM   31 C31  LIG A   1      -2.736   4.390  -2.686  1.00  0.00    -0.024  C
HETATM   32 C32  LIG A   1      -2.517   2.882  -2.857  1.00  0.00    -0.050  C
HETATM   33 C33  LIG A   1      -2.186   2.507  -4.305  1.00  0.00    -0.041  C
HETATM   34 C34  LIG A   1      -2.011   0.989  -4.445  1.00  0.00    -0.008  C
HETATM   35 N35  LIG A   1      -1.937   0.611  -5.853  1.00  0.00    -0.330  N
HETATM   36 N36  LIG A   1      -1.963   6.840  -0.519  1.00  0.00    -0.343  N
HETATM   37 C37  LIG A   1      -0.724   6.130  -0.175  1.00  0.00     0.108  C
HETATM   38 C38  LIG A   1      -0.666   5.909   1.313  1.00  0.00     0.243  C
HETATM   39 O39  LIG A   1      -0.670   6.901   2.097  1.00  0.00    -0.273  O
HETATM   40 C40  LIG A   1       0.505   6.947  -0.626  1.00  0.00    -0.021  C
HETATM   41 C41  LIG A   1       0.641   7.032  -2.165  1.00  0.00    -0.045  C
HETATM   42 C42  LIG A   1       1.496   8.247  -2.550  1.00  0.00    -0.063  C
HETATM   43 C43  LIG A   1       1.264   5.752  -2.746  1.00  0.00    -0.063  C
HETATM   44 N44  LIG A   1      -0.572   4.577   1.837  1.00  0.00    -0.342  N
HETATM   45 C45  LIG A   1       0.217   4.272   3.034  1.00  0.00     0.116  C
HETATM   46 C46  LIG A   1       1.492   3.600   2.604  1.00  0.00     0.243  C
HETATM   47 O47  LIG A   1       1.443   2.432   2.136  1.00  0.00    -0.273  O
HETATM   48 C48  LIG A   1      -0.581   3.363   3.982  1.00  0.00     0.056  C
HETATM   49 C49  LIG A   1      -1.760   4.096   4.551  1.00  0.00     0.220  C
HETATM   50 O50  LIG A   1      -1.665   4.665   5.671  1.00  0.00    -0.275  O
HETATM   51 N51  LIG A   1      -2.974   4.197   3.806  1.00  0.00    -0.370  N
HETATM   52 N52  LIG A   1       2.742   4.304   2.637  1.00  0.00    -0.343  N
HETATM   53 C53  LIG A   1       3.945   3.716   2.043  1.00  0.00     0.108  C
HETATM   54 C54  LIG A   1       4.542   2.697   2.978  1.00  0.00     0.243  C
HETATM   55 O55  LIG A   1       4.787   3.011   4.174  1.00  0.00    -0.273  O
HETATM   56 C56  LIG A   1       4.983   4.791   1.674  1.00  0.00    -0.022  C
HETATM   57 C57  LIG A   1       4.479   5.700   0.537  1.00  0.00    -0.033  C
HETATM   58 C58  LIG A   1       5.623   6.538  -0.048  1.00  0.00     0.018  C
HETATM   59 N59  LIG A   1       5.179   7.261  -1.241  1.00  0.00    -0.357  N
HETATM   60 C60  LIG A   1       5.023   6.632  -2.524  1.00  0.00     0.185  C
HETATM   61 N61  LIG A   1       5.194   5.352  -2.654  1.00  0.00    -0.270  N
HETATM   62 N62  LIG A   1       4.681   7.424  -3.664  1.00  0.00    -0.370  N
HETATM   63 N63  LIG A   1       4.843   1.378   2.496  1.00  0.00    -0.342  N
HETATM   64 C64  LIG A   1       5.097   0.229   3.378  1.00  0.00     0.110  C
HETATM   65 C65  LIG A   1       6.129  -0.698   2.762  1.00  0.00     0.243  C
HETATM   66 O66  LIG A   1       6.663  -0.402   1.658  1.00  0.00    -0.273  O
HETATM   67 C67  LIG A   1       3.763  -0.505   3.734  1.00  0.00    -0.015  C
HETATM   68 C68  LIG A   1       2.976   0.295   4.785  1.00  0.00    -0.060  C
HETATM   69 C69  LIG A   1       2.842  -0.794   2.519  1.00  0.00    -0.051  C
HETATM   70 C70  LIG A   1       3.371  -1.885   1.595  1.00  0.00    -0.065  C
HETATM   71 N71  LIG A   1       6.547  -1.887   3.456  1.00  0.00    -0.342  N
HETATM   72 C72  LIG A   1       7.578  -2.790   2.917  1.00  0.00     0.110  C
HETATM   73 C73  LIG A   1       7.156  -3.353   1.575  1.00  0.00     0.246  C
HETATM   74 O74  LIG A   1       5.947  -3.645   1.379  1.00  0.00    -0.272  O
HETATM   75 C75  LIG A   1       7.952  -3.928   3.914  1.00  0.00    -0.015  C
HETATM   76 C76  LIG A   1       8.725  -3.356   5.115  1.00  0.00    -0.060  C
HETATM   77 C77  LIG A   1       6.723  -4.755   4.380  1.00  0.00    -0.051  C
HETATM   78 C78  LIG A   1       7.115  -6.118   4.952  1.00  0.00    -0.065  C
HETATM   79 N79  LIG A   1       8.108  -3.545   0.512  1.00  0.00    -0.329  N
HETATM   80 C80  LIG A   1       7.850  -3.143  -0.864  1.00  0.00     0.111  C
HETATM   81 C81  LIG A   1       6.642  -3.842  -1.438  1.00  0.00     0.243  C
HETATM   82 O82  LIG A   1       6.631  -5.100  -1.531  1.00  0.00    -0.273  O
HETATM   83 C83  LIG A   1       9.125  -3.481  -1.640  1.00  0.00    -0.022  C
HETATM   84 C84  LIG A   1      10.210  -3.684  -0.587  1.00  0.00    -0.033  C
HETATM   85 C85  LIG A   1       9.483  -3.972   0.720  1.00  0.00     0.021  C
HETATM   86 N86  LIG A   1       5.509  -3.070  -1.866  1.00  0.00    -0.342  N
HETATM   87 C87  LIG A   1       4.490  -3.538  -2.813  1.00  0.00     0.110  C
HETATM   88 C88  LIG A   1       3.654  -4.625  -2.180  1.00  0.00     0.243  C
HETATM   89 O89  LIG A   1       3.996  -5.837  -2.276  1.00  0.00    -0.273  O
HETATM   90 C90  LIG A   1       5.111  -3.955  -4.177  1.00  0.00    -0.018  C
HETATM   91 C91  LIG A   1       5.975  -2.822  -4.758  1.00  0.00    -0.060  C
HETATM   92 C92  LIG A   1       4.015  -4.326  -5.195  1.00  0.00    -0.060  C
HETATM   93 N93  LIG A   1       2.465  -4.271  -1.465  1.00  0.00    -0.343  N
HETATM   94 C94  LIG A   1       1.305  -5.162  -1.416  1.00  0.00     0.108  C
HETATM   95 C95  LIG A   1       0.676  -5.243  -2.786  1.00  0.00     0.243  C
HETATM   96 O96  LIG A   1       0.306  -6.364  -3.232  1.00  0.00    -0.273  O
HETATM   97 C97  LIG A   1       0.284  -4.652  -0.380  1.00  0.00    -0.024  C
HETATM   98 C98  LIG A   1      -0.811  -5.687  -0.084  1.00  0.00    -0.050  C
HETATM   99 C99  LIG A   1      -1.779  -5.170   0.986  1.00  0.00    -0.041  C
HETATM  100 C100 LIG A   1      -2.906  -6.173   1.242  1.00  0.00    -0.008  C
HETATM  101 N101 LIG A   1      -3.756  -5.706   2.332  1.00  0.00    -0.330  N
HETATM  102 N102 LIG A   1       0.480  -4.053  -3.567  1.00  0.00    -0.345  N
HETATM  103 C103 LIG A   1      -0.227  -4.061  -4.845  1.00  0.00     0.097  C
HETATM  104 C104 LIG A   1      -1.697  -4.237  -4.618  1.00  0.00     0.240  C
HETATM  105 O105 LIG A   1      -2.303  -5.196  -5.168  1.00  0.00    -0.273  O
HETATM  106 N106 LIG A   1      -2.405  -3.310  -3.781  1.00  0.00    -0.342  N
HETATM  107 C107 LIG A   1      -3.819  -3.486  -3.429  1.00  0.00     0.112  C
HETATM  108 C108 LIG A   1      -4.372  -2.194  -2.874  1.00  0.00     0.243  C
HETATM  109 O109 LIG A   1      -5.323  -1.621  -3.473  1.00  0.00    -0.273  O
HETATM  110 C110 LIG A   1      -3.974  -4.649  -2.428  1.00  0.00     0.002  C
HETATM  111 C111 LIG A   1      -5.411  -4.875  -2.033  1.00  0.00    -0.045  C
HETATM  112 C112 LIG A   1      -6.300  -5.500  -2.926  1.00  0.00    -0.059  C
HETATM  113 C113 LIG A   1      -5.883  -4.442  -0.780  1.00  0.00    -0.059  C
HETATM  114 C114 LIG A   1      -7.640  -5.688  -2.568  1.00  0.00    -0.062  C
HETATM  115 C115 LIG A   1      -7.222  -4.631  -0.427  1.00  0.00    -0.062  C
HETATM  116 C116 LIG A   1      -8.100  -5.254  -1.320  1.00  0.00    -0.062  C
HETATM  117 N117 LIG A   1      -3.820  -1.619  -1.678  1.00  0.00    -0.340  N
HETATM  118 C118 LIG A   1      -4.259  -0.325  -1.143  1.00  0.00     0.131  C
HETATM  119 C119 LIG A   1      -3.090   0.463  -0.590  1.00  0.00     0.245  C
HETATM  120 O120 LIG A   1      -3.311   1.484   0.116  1.00  0.00    -0.273  O
HETATM  121 C121 LIG A   1      -5.333  -0.559  -0.067  1.00  0.00     0.072  C
HETATM  122 O122 LIG A   1      -4.762  -1.033   1.124  1.00  0.00    -0.394  O
HETATM  123 N123 LIG A   1      -1.736   0.098  -0.906  1.00  0.00    -0.342  N
HETATM  124 C124 LIG A   1      -0.595   0.478  -0.062  1.00  0.00     0.109  C
HETATM  125 C125 LIG A   1       0.685  -0.076  -0.646  1.00  0.00     0.243  C
HETATM  126 O126 LIG A   1       0.730  -1.291  -0.975  1.00  0.00    -0.273  O
HETATM  127 C127 LIG A   1      -0.801   0.002   1.397  1.00  0.00    -0.015  C
HETATM  128 C128 LIG A   1      -1.034  -1.512   1.539  1.00  0.00    -0.005  C
HETATM  129 S129 LIG A   1      -2.032  -1.904   3.022  1.00  0.00    -0.165  S
HETATM  130 C130 LIG A   1      -0.695  -1.656   4.233  1.00  0.00    -0.018  C
HETATM  131 N131 LIG A   1       1.838   0.760  -0.848  1.00  0.00    -0.341  N
HETATM  132 C132 LIG A   1       2.988   0.292  -1.635  1.00  0.00     0.127  C
HETATM  133 C133 LIG A   1       4.242   1.048  -1.278  1.00  0.00     0.326  C
HETATM  134 O134 LIG A   1       5.316   0.420  -1.075  1.00  0.00    -0.250  O
HETATM  135 C135 LIG A   1       2.685   0.372  -3.147  1.00  0.00    -0.020  C
HETATM  136 C136 LIG A   1       2.526   1.815  -3.660  1.00  0.00    -0.033  C
HETATM  137 C137 LIG A   1       1.994   1.847  -5.095  1.00  0.00     0.018  C
HETATM  138 N138 LIG A   1       1.937   3.224  -5.591  1.00  0.00    -0.357  N
HETATM  139 C139 LIG A   1       1.318   3.566  -6.839  1.00  0.00     0.185  C
HETATM  140 N140 LIG A   1       0.799   2.642  -7.588  1.00  0.00    -0.270  N
HETATM  141 N141 LIG A   1       1.272   4.935  -7.254  1.00  0.00    -0.370  N
HETATM  142 O142 LIG A   1       4.241   2.438  -1.223  1.00  0.00    -0.480  O
HETATM  143 H143 LIG A   1      -9.423  -1.754   4.874  1.00  0.00     0.119  H
HETATM  144 H144 LIG A   1      -9.136  -2.412   3.343  1.00  0.00     0.119  H
HETATM  145 H145 LIG A   1      -7.085  -1.570   5.332  1.00  0.00     0.057  H
HETATM  146 H146 LIG A   1      -6.791  -2.608   2.433  1.00  0.00     0.034  H
HETATM  147 H147 LIG A   1      -5.476  -1.904   3.425  1.00  0.00     0.034  H
HETATM  148 H148 LIG A   1      -4.541  -3.100   5.355  1.00  0.00     0.063  H
HETATM  149 H149 LIG A   1      -7.756  -4.832   3.054  1.00  0.00     0.063  H
HETATM  150 H150 LIG A   1      -4.142  -5.288   6.426  1.00  0.00     0.062  H
HETATM  151 H151 LIG A   1      -7.350  -7.010   4.145  1.00  0.00     0.062  H
HETATM  152 H152 LIG A   1      -5.538  -7.246   5.822  1.00  0.00     0.062  H
HETATM  153 H153 LIG A   1      -5.894   0.520   4.785  1.00  0.00     0.164  H
HETATM  154 H154 LIG A   1      -8.073   2.373   3.869  1.00  0.00     0.063  H
HETATM  155 H155 LIG A   1      -5.290   2.963   5.080  1.00  0.00     0.032  H
HETATM  156 H156 LIG A   1      -7.757   4.793   4.679  1.00  0.00     0.023  H
HETATM  157 H157 LIG A   1      -6.178   4.927   3.810  1.00  0.00     0.023  H
HETATM  158 H158 LIG A   1      -6.246   5.227   5.572  1.00  0.00     0.023  H
HETATM  159 H159 LIG A   1      -6.715   1.702   6.683  1.00  0.00     0.023  H
HETATM  160 H160 LIG A   1      -6.575   3.412   7.191  1.00  0.00     0.023  H
HETATM  161 H161 LIG A   1      -8.089   2.837   6.392  1.00  0.00     0.023  H
HETATM  162 H162 LIG A   1      -7.875   3.965   2.068  1.00  0.00     0.164  H
HETATM  163 H163 LIG A   1      -6.594   2.629  -0.199  1.00  0.00     0.064  H
HETATM  164 H164 LIG A   1      -7.931   5.408   0.048  1.00  0.00     0.039  H
HETATM  165 H165 LIG A   1      -7.409   4.674  -1.501  1.00  0.00     0.039  H
HETATM  166 H166 LIG A   1     -11.000   3.367   0.252  1.00  0.00     0.159  H
HETATM  167 H167 LIG A   1     -10.053   4.675   1.042  1.00  0.00     0.159  H
HETATM  168 H168 LIG A   1      -5.146   3.858  -1.925  1.00  0.00     0.164  H
HETATM  169 H169 LIG A   1      -2.647   4.197  -0.513  1.00  0.00     0.063  H
HETATM  170 H170 LIG A   1      -3.462   4.758  -3.444  1.00  0.00     0.029  H
HETATM  171 H171 LIG A   1      -1.770   4.908  -2.873  1.00  0.00     0.029  H
HETATM  172 H172 LIG A   1      -3.442   2.346  -2.562  1.00  0.00     0.027  H
HETATM  173 H173 LIG A   1      -1.685   2.561  -2.194  1.00  0.00     0.027  H
HETATM  174 H174 LIG A   1      -3.013   2.841  -4.968  1.00  0.00     0.028  H
HETATM  175 H175 LIG A   1      -1.249   3.017  -4.621  1.00  0.00     0.028  H
HETATM  176 H176 LIG A   1      -2.880   0.467  -3.986  1.00  0.00     0.043  H
HETATM  177 H177 LIG A   1      -1.088   0.665  -3.914  1.00  0.00     0.043  H
HETATM  178 H178 LIG A   1      -1.820  -0.428  -5.895  1.00  0.00     0.118  H
HETATM  179 H179 LIG A   1      -1.068   1.024  -6.262  1.00  0.00     0.118  H
HETATM  180 H180 LIG A   1      -2.014   7.863  -0.307  1.00  0.00     0.164  H
HETATM  181 H181 LIG A   1      -0.675   5.149  -0.681  1.00  0.00     0.063  H
HETATM  182 H182 LIG A   1       1.429   6.494  -0.200  1.00  0.00     0.030  H
HETATM  183 H183 LIG A   1       0.423   7.970  -0.195  1.00  0.00     0.030  H
HETATM  184 H184 LIG A   1      -0.363   7.172  -2.624  1.00  0.00     0.030  H
HETATM  185 H185 LIG A   1       1.638   8.290  -3.651  1.00  0.00     0.023  H
HETATM  186 H186 LIG A   1       2.489   8.191  -2.057  1.00  0.00     0.023  H
HETATM  187 H187 LIG A   1       0.993   9.186  -2.233  1.00  0.00     0.023  H
HETATM  188 H188 LIG A   1       2.272   5.572  -2.315  1.00  0.00     0.023  H
HETATM  189 H189 LIG A   1       0.630   4.867  -2.536  1.00  0.00     0.023  H
HETATM  190 H190 LIG A   1       1.357   5.847  -3.849  1.00  0.00     0.023  H
HETATM  191 H191 LIG A   1      -0.888   3.779   1.237  1.00  0.00     0.164  H
HETATM  192 H192 LIG A   1       0.472   5.207   3.584  1.00  0.00     0.064  H
HETATM  193 H193 LIG A   1       0.074   3.026   4.817  1.00  0.00     0.039  H
HETATM  194 H194 LIG A   1      -0.936   2.455   3.446  1.00  0.00     0.039  H
HETATM  195 H195 LIG A   1      -3.081   3.708   2.889  1.00  0.00     0.159  H
HETATM  196 H196 LIG A   1      -3.765   4.770   4.174  1.00  0.00     0.159  H
HETATM  197 H197 LIG A   1       2.786   5.257   3.075  1.00  0.00     0.164  H
HETATM  198 H198 LIG A   1       3.652   3.201   1.106  1.00  0.00     0.063  H
HETATM  199 H199 LIG A   1       5.912   4.276   1.341  1.00  0.00     0.029  H
HETATM  200 H200 LIG A   1       5.233   5.407   2.565  1.00  0.00     0.029  H
HETATM  201 H201 LIG A   1       4.029   5.080  -0.267  1.00  0.00     0.029  H
HETATM  202 H202 LIG A   1       3.689   6.379   0.926  1.00  0.00     0.029  H
HETATM  203 H203 LIG A   1       5.963   7.269   0.719  1.00  0.00     0.049  H
HETATM  204 H204 LIG A   1       6.492   5.893  -0.310  1.00  0.00     0.049  H
HETATM  205 H205 LIG A   1       5.058   8.297  -1.173  1.00  0.00     0.163  H
HETATM  206 H206 LIG A   1       5.081   4.871  -3.576  1.00  0.00     0.191  H
HETATM  207 H207 LIG A   1       4.539   6.985  -4.600  1.00  0.00     0.159  H
HETATM  208 H208 LIG A   1       4.568   8.459  -3.574  1.00  0.00     0.159  H
HETATM  209 H209 LIG A   1       4.709   1.193   1.477  1.00  0.00     0.164  H
HETATM  210 H210 LIG A   1       5.566   0.593   4.318  1.00  0.00     0.064  H
HETATM  211 H211 LIG A   1       3.999  -1.476   4.220  1.00  0.00     0.033  H
HETATM  212 H212 LIG A   1       2.591   1.245   4.360  1.00  0.00     0.023  H
HETATM  213 H213 LIG A   1       3.617   0.524   5.663  1.00  0.00     0.023  H
HETATM  214 H214 LIG A   1       2.108  -0.299   5.148  1.00  0.00     0.023  H
HETATM  215 H215 LIG A   1       1.861  -1.149   2.897  1.00  0.00     0.027  H
HETATM  216 H216 LIG A   1       2.647   0.125   1.931  1.00  0.00     0.027  H
HETATM  217 H217 LIG A   1       3.641  -2.787   2.181  1.00  0.00     0.023  H
HETATM  218 H218 LIG A   1       2.577  -2.167   0.876  1.00  0.00     0.023  H
HETATM  219 H219 LIG A   1       4.241  -1.521   1.013  1.00  0.00     0.023  H
HETATM  220 H220 LIG A   1       6.195  -2.028   4.427  1.00  0.00     0.164  H
HETATM  221 H221 LIG A   1       8.486  -2.173   2.741  1.00  0.00     0.064  H
HETATM  222 H222 LIG A   1       8.650  -4.613   3.384  1.00  0.00     0.033  H
HETATM  223 H223 LIG A   1       9.118  -4.177   5.753  1.00  0.00     0.023  H
HETATM  224 H224 LIG A   1       9.598  -2.763   4.764  1.00  0.00     0.023  H
HETATM  225 H225 LIG A   1       8.073  -2.702   5.735  1.00  0.00     0.023  H
HETATM  226 H226 LIG A   1       6.145  -4.201   5.150  1.00  0.00     0.027  H
HETATM  227 H227 LIG A   1       6.039  -4.943   3.527  1.00  0.00     0.027  H
HETATM  228 H228 LIG A   1       7.709  -6.695   4.210  1.00  0.00     0.023  H
HETATM  229 H229 LIG A   1       7.701  -6.003   5.888  1.00  0.00     0.023  H
HETATM  230 H230 LIG A   1       6.195  -6.694   5.189  1.00  0.00     0.023  H
HETATM  231 H231 LIG A   1       7.697  -2.041  -0.884  1.00  0.00     0.063  H
HETATM  232 H232 LIG A   1       9.014  -4.421  -2.225  1.00  0.00     0.029  H
HETATM  233 H233 LIG A   1       9.395  -2.660  -2.340  1.00  0.00     0.029  H
HETATM  234 H234 LIG A   1      10.806  -2.749  -0.485  1.00  0.00     0.029  H
HETATM  235 H235 LIG A   1      10.891  -4.519  -0.862  1.00  0.00     0.029  H
HETATM  236 H236 LIG A   1       9.500  -5.060   0.944  1.00  0.00     0.049  H
HETATM  237 H237 LIG A   1       9.965  -3.413   1.548  1.00  0.00     0.049  H
HETATM  238 H238 LIG A   1       5.458  -2.068  -1.571  1.00  0.00     0.164  H
HETATM  239 H239 LIG A   1       3.807  -2.684  -3.020  1.00  0.00     0.063  H
HETATM  240 H240 LIG A   1       5.762  -4.845  -4.033  1.00  0.00     0.032  H
HETATM  241 H241 LIG A   1       6.416  -3.135  -5.730  1.00  0.00     0.023  H
HETATM  242 H242 LIG A   1       6.816  -2.574  -4.076  1.00  0.00     0.023  H
HETATM  243 H243 LIG A   1       5.365  -1.907  -4.920  1.00  0.00     0.023  H
HETATM  244 H244 LIG A   1       3.321  -3.470  -5.353  1.00  0.00     0.023  H
HETATM  245 H245 LIG A   1       3.427  -5.200  -4.843  1.00  0.00     0.023  H
HETATM  246 H246 LIG A   1       4.471  -4.600  -6.170  1.00  0.00     0.023  H
HETATM  247 H247 LIG A   1       2.349  -3.272  -1.185  1.00  0.00     0.164  H
HETATM  248 H248 LIG A   1       1.649  -6.173  -1.101  1.00  0.00     0.063  H
HETATM  249 H249 LIG A   1       0.821  -4.418   0.566  1.00  0.00     0.029  H
HETATM  250 H250 LIG A   1      -0.188  -3.716  -0.747  1.00  0.00     0.029  H
HETATM  251 H251 LIG A   1      -0.340  -6.630   0.273  1.00  0.00     0.027  H
HETATM  252 H252 LIG A   1      -1.376  -5.906  -1.015  1.00  0.00     0.027  H
HETATM  253 H253 LIG A   1      -2.225  -4.210   0.651  1.00  0.00     0.028  H
HETATM  254 H254 LIG A   1      -1.224  -4.992   1.934  1.00  0.00     0.028  H
HETATM  255 H255 LIG A   1      -3.515  -6.304   0.318  1.00  0.00     0.043  H
HETATM  256 H256 LIG A   1      -2.471  -7.160   1.520  1.00  0.00     0.043  H
HETATM  257 H257 LIG A   1      -4.498  -6.428   2.482  1.00  0.00     0.118  H
HETATM  258 H258 LIG A   1      -4.245  -4.835   2.019  1.00  0.00     0.118  H
HETATM  259 H259 LIG A   1       0.836  -3.138  -3.208  1.00  0.00     0.164  H
HETATM  260 H260 LIG A   1       0.177  -4.866  -5.498  1.00  0.00     0.059  H
HETATM  261 H261 LIG A   1      -0.064  -3.090  -5.362  1.00  0.00     0.059  H
HETATM  262 H262 LIG A   1      -1.878  -2.487  -3.410  1.00  0.00     0.164  H
HETATM  263 H263 LIG A   1      -4.384  -3.736  -4.354  1.00  0.00     0.064  H
HETATM  264 H264 LIG A   1      -3.583  -5.586  -2.882  1.00  0.00     0.034  H
HETATM  265 H265 LIG A   1      -3.351  -4.460  -1.529  1.00  0.00     0.034  H
HETATM  266 H266 LIG A   1      -5.956  -5.836  -3.898  1.00  0.00     0.063  H
HETATM  267 H267 LIG A   1      -5.215  -3.957  -0.081  1.00  0.00     0.063  H
HETATM  268 H268 LIG A   1      -8.321  -6.169  -3.260  1.00  0.00     0.062  H
HETATM  269 H269 LIG A   1      -7.581  -4.291   0.538  1.00  0.00     0.062  H
HETATM  270 H270 LIG A   1      -9.138  -5.399  -1.045  1.00  0.00     0.062  H
HETATM  271 H271 LIG A   1      -3.153  -2.192  -1.114  1.00  0.00     0.164  H
HETATM  272 H272 LIG A   1      -4.709   0.285  -1.957  1.00  0.00     0.066  H
HETATM  273 H273 LIG A   1      -6.105  -1.272  -0.438  1.00  0.00     0.059  H
HETATM  274 H274 LIG A   1      -5.853   0.397   0.149  1.00  0.00     0.059  H
HETATM  275 H275 LIG A   1      -4.517  -1.980   0.970  1.00  0.00     0.210  H
HETATM  276 H276 LIG A   1      -1.571  -0.496  -1.749  1.00  0.00     0.164  H
HETATM  277 H277 LIG A   1      -0.526   1.587  -0.053  1.00  0.00     0.063  H
HETATM  278 H278 LIG A   1       0.080   0.287   2.004  1.00  0.00     0.030  H
HETATM  279 H279 LIG A   1      -1.665   0.549   1.828  1.00  0.00     0.030  H
HETATM  280 H280 LIG A   1      -0.065  -2.055   1.570  1.00  0.00     0.038  H
HETATM  281 H281 LIG A   1      -1.600  -1.897   0.669  1.00  0.00     0.038  H
HETATM  282 H282 LIG A   1      -0.318  -0.612   4.189  1.00  0.00     0.034  H
HETATM  283 H283 LIG A   1      -1.096  -1.842   5.252  1.00  0.00     0.034  H
HETATM  284 H284 LIG A   1       0.131  -2.374   4.041  1.00  0.00     0.034  H
HETATM  285 H285 LIG A   1       1.802   1.753  -0.525  1.00  0.00     0.164  H
HETATM  286 H286 LIG A   1       3.171  -0.777  -1.387  1.00  0.00     0.065  H
HETATM  287 H287 LIG A   1       3.507  -0.123  -3.710  1.00  0.00     0.029  H
HETATM  288 H288 LIG A   1       1.754  -0.201  -3.354  1.00  0.00     0.029  H
HETATM  289 H289 LIG A   1       3.515   2.322  -3.645  1.00  0.00     0.029  H
HETATM  290 H290 LIG A   1       1.824   2.378  -3.008  1.00  0.00     0.029  H
HETATM  291 H291 LIG A   1       2.654   1.246  -5.759  1.00  0.00     0.049  H
HETATM  292 H292 LIG A   1       0.976   1.406  -5.109  1.00  0.00     0.049  H
HETATM  293 H293 LIG A   1       2.363   3.994  -5.025  1.00  0.00     0.163  H
HETATM  294 H294 LIG A   1       0.340   2.868  -8.499  1.00  0.00     0.191  H
HETATM  295 H295 LIG A   1       1.694   5.683  -6.656  1.00  0.00     0.159  H
HETATM  296 H296 LIG A   1       0.818   5.209  -8.155  1.00  0.00     0.159  H
HETATM  297 H297 LIG A   1       5.093   2.947  -1.017  1.00  0.00     0.296  H
ENDROOT
TORSDOF 0
