ROOT
HETATM    1 N1   LIG A   1      -9.085  -2.221   4.173  1.00  0.00    -0.320  N
HETATM    2 C2   LIG A   1      -7.781  -1.551   4.223  1.00  0.00     0.088  C
HETATM    3 C3   LIG A   1      -7.881  -0.115   3.769  1.00  0.00     0.237  C
HETATM    4 O4   LIG A   1      -8.705   0.210   2.869  1.00  0.00    -0.273  O
HETATM    5 C5   LIG A   1      -6.750  -2.303   3.367  1.00  0.00    -0.004  C
HETATM    6 C6   LIG A   1      -6.513  -3.696   3.887  1.00  0.00    -0.046  C
HETATM    7 C7   LIG A   1      -5.548  -3.923   4.883  1.00  0.00    -0.059  C
HETATM    8 C8   LIG A   1      -7.288  -4.772   3.421  1.00  0.00    -0.059  C
HETATM    9 C9   LIG A   1      -5.351  -5.211   5.393  1.00  0.00    -0.062  C
HETATM   10 C10  LIG A   1      -7.090  -6.057   3.935  1.00  0.00    -0.062  C
HETATM   11 C11  LIG A   1      -6.122  -6.277   4.920  1.00  0.00    -0.062  C
HETATM   12 N12  LIG A   1      -6.996   0.870   4.322  1.00  0.00    -0.343  N
HETATM   13 C13  LIG A   1      -7.108   2.294   3.987  1.00  0.00     0.110  C
HETATM   14 C14  LIG A   1      -6.433   2.539   2.661  1.00  0.00     0.243  C
HETATM   15 O15  LIG A   1      -5.296   2.044   2.436  1.00  0.00    -0.273  O
HETATM   16 C16  LIG A   1      -6.499   3.180   5.107  1.00  0.00    -0.018  C
HETATM   17 C17  LIG A   1      -6.633   4.677   4.775  1.00  0.00    -0.060  C
HETATM   18 C18  LIG A   1      -7.177   2.902   6.460  1.00  0.00    -0.060  C
HETATM   19 N19  LIG A   1      -7.068   3.370   1.678  1.00  0.00    -0.342  N
HETATM   20 C20  LIG A   1      -6.658   3.381   0.267  1.00  0.00     0.116  C
HETATM   21 C21  LIG A   1      -5.351   4.115   0.089  1.00  0.00     0.243  C
HETATM   22 O22  LIG A   1      -4.870   4.794   1.037  1.00  0.00    -0.273  O
HETATM   23 C23  LIG A   1      -7.751   4.027  -0.606  1.00  0.00     0.056  C
HETATM   24 C24  LIG A   1      -9.015   3.216  -0.579  1.00  0.00     0.220  C
HETATM   25 O25  LIG A   1      -9.083   2.144  -1.238  1.00  0.00    -0.275  O
HETATM   26 N26  LIG A   1     -10.129   3.631   0.212  1.00  0.00    -0.370  N
HETATM   27 N27  LIG A   1      -4.662   4.046  -1.170  1.00  0.00    -0.343  N
HETATM   28 C28  LIG A   1      -3.306   4.579  -1.352  1.00  0.00     0.108  C
HETATM   29 C29  LIG A   1      -3.316   6.083  -1.197  1.00  0.00     0.243  C
HETATM   30 O30  LIG A   1      -4.257   6.738  -1.721  1.00  0.00    -0.273  O
HETATM   31 C31  LIG A   1      -2.755   4.210  -2.747  1.00  0.00    -0.024  C
HETATM   32 C32  LIG A   1      -2.420   2.717  -2.849  1.00  0.00    -0.050  C
HETATM   33 C33  LIG A   1      -1.995   2.319  -4.266  1.00  0.00    -0.041  C
HETATM   34 C34  LIG A   1      -1.685   0.819  -4.337  1.00  0.00    -0.008  C
HETATM   35 N35  LIG A   1      -1.471   0.410  -5.722  1.00  0.00    -0.330  N
HETATM   36 N36  LIG A   1      -2.289   6.802  -0.488  1.00  0.00    -0.343  N
HETATM   37 C37  LIG A   1      -1.000   6.249  -0.056  1.00  0.00     0.108  C
HETATM   38 C38  LIG A   1      -0.945   6.224   1.449  1.00  0.00     0.243  C
HETATM   39 O39  LIG A   1      -0.766   7.291   2.096  1.00  0.00    -0.273  O
HETATM   40 C40  LIG A   1       0.162   7.089  -0.623  1.00  0.00    -0.021  C
HETATM   41 C41  LIG A   1       0.330   6.932  -2.153  1.00  0.00    -0.045  C
HETATM   42 C42  LIG A   1       1.133   8.111  -2.716  1.00  0.00    -0.063  C
HETATM   43 C43  LIG A   1       1.026   5.610  -2.514  1.00  0.00    -0.063  C
HETATM   44 N44  LIG A   1      -1.091   4.985   2.150  1.00  0.00    -0.342  N
HETATM   45 C45  LIG A   1      -0.082   4.568   3.129  1.00  0.00     0.116  C
HETATM   46 C46  LIG A   1       1.076   3.923   2.416  1.00  0.00     0.243  C
HETATM   47 O47  LIG A   1       0.918   3.476   1.248  1.00  0.00    -0.273  O
HETATM   48 C48  LIG A   1      -0.691   3.592   4.148  1.00  0.00     0.056  C
HETATM   49 C49  LIG A   1      -1.689   4.290   5.023  1.00  0.00     0.220  C
HETATM   50 O50  LIG A   1      -1.316   4.799   6.114  1.00  0.00    -0.275  O
HETATM   51 N51  LIG A   1      -3.044   4.436   4.603  1.00  0.00    -0.370  N
HETATM   52 N52  LIG A   1       2.351   3.803   3.066  1.00  0.00    -0.343  N
HETATM   53 C53  LIG A   1       3.526   3.248   2.387  1.00  0.00     0.108  C
HETATM   54 C54  LIG A   1       4.187   2.209   3.254  1.00  0.00     0.243  C
HETATM   55 O55  LIG A   1       4.503   2.491   4.442  1.00  0.00    -0.273  O
HETATM   56 C56  LIG A   1       4.519   4.365   2.022  1.00  0.00    -0.022  C
HETATM   57 C57  LIG A   1       3.986   5.256   0.887  1.00  0.00    -0.033  C
HETATM   58 C58  LIG A   1       5.063   6.236   0.406  1.00  0.00     0.018  C
HETATM   59 N59  LIG A   1       4.652   6.894  -0.835  1.00  0.00    -0.357  N
HETATM   60 C60  LIG A   1       4.762   6.264  -2.121  1.00  0.00     0.185  C
HETATM   61 N61  LIG A   1       5.100   5.016  -2.213  1.00  0.00    -0.270  N
HETATM   62 N62  LIG A   1       4.499   7.019  -3.306  1.00  0.00    -0.370  N
HETATM   63 N63  LIG A   1       4.494   0.917   2.706  1.00  0.00    -0.342  N
HETATM   64 C64  LIG A   1       5.069  -0.187   3.485  1.00  0.00     0.110  C
HETATM   65 C65  LIG A   1       6.152  -0.891   2.687  1.00  0.00     0.243  C
HETATM   66 O66  LIG A   1       6.501  -0.429   1.567  1.00  0.00    -0.273  O
HETATM   67 C67  LIG A   1       3.944  -1.153   3.980  1.00  0.00    -0.015  C
HETATM   68 C68  LIG A   1       3.222  -0.541   5.191  1.00  0.00    -0.060  C
HETATM   69 C69  LIG A   1       2.892  -1.532   2.905  1.00  0.00    -0.051  C
HETATM   70 C70  LIG A   1       3.456  -2.360   1.755  1.00  0.00    -0.065  C
HETATM   71 N71  LIG A   1       6.838  -2.034   3.226  1.00  0.00    -0.342  N
HETATM   72 C72  LIG A   1       7.924  -2.709   2.493  1.00  0.00     0.110  C
HETATM   73 C73  LIG A   1       7.425  -3.248   1.167  1.00  0.00     0.246  C
HETATM   74 O74  LIG A   1       6.254  -3.706   1.089  1.00  0.00    -0.272  O
HETATM   75 C75  LIG A   1       8.610  -3.821   3.342  1.00  0.00    -0.015  C
HETATM   76 C76  LIG A   1       9.370  -3.203   4.530  1.00  0.00    -0.060  C
HETATM   77 C77  LIG A   1       7.622  -4.923   3.809  1.00  0.00    -0.051  C
HETATM   78 C78  LIG A   1       8.333  -6.153   4.375  1.00  0.00    -0.065  C
HETATM   79 N79  LIG A   1       8.252  -3.228  -0.011  1.00  0.00    -0.329  N
HETATM   80 C80  LIG A   1       7.762  -2.805  -1.317  1.00  0.00     0.111  C
HETATM   81 C81  LIG A   1       6.618  -3.659  -1.804  1.00  0.00     0.243  C
HETATM   82 O82  LIG A   1       6.706  -4.916  -1.744  1.00  0.00    -0.273  O
HETATM   83 C83  LIG A   1       8.963  -2.901  -2.259  1.00  0.00    -0.022  C
HETATM   84 C84  LIG A   1      10.192  -2.945  -1.356  1.00  0.00    -0.033  C
HETATM   85 C85  LIG A   1       9.696  -3.415   0.005  1.00  0.00     0.021  C
HETATM   86 N86  LIG A   1       5.457  -3.035  -2.376  1.00  0.00    -0.342  N
HETATM   87 C87  LIG A   1       4.414  -3.734  -3.134  1.00  0.00     0.110  C
HETATM   88 C88  LIG A   1       3.664  -4.689  -2.239  1.00  0.00     0.243  C
HETATM   89 O89  LIG A   1       4.053  -5.881  -2.103  1.00  0.00    -0.273  O
HETATM   90 C90  LIG A   1       4.980  -4.410  -4.415  1.00  0.00    -0.018  C
HETATM   91 C91  LIG A   1       5.783  -3.409  -5.261  1.00  0.00    -0.060  C
HETATM   92 C92  LIG A   1       3.847  -5.002  -5.272  1.00  0.00    -0.060  C
HETATM   93 N93  LIG A   1       2.489  -4.242  -1.555  1.00  0.00    -0.343  N
HETATM   94 C94  LIG A   1       1.283  -5.073  -1.517  1.00  0.00     0.108  C
HETATM   95 C95  LIG A   1       0.654  -5.106  -2.888  1.00  0.00     0.243  C
HETATM   96 O96  LIG A   1       0.221  -6.199  -3.345  1.00  0.00    -0.273  O
HETATM   97 C97  LIG A   1       0.288  -4.524  -0.476  1.00  0.00    -0.024  C
HETATM   98 C98  LIG A   1      -0.843  -5.516  -0.175  1.00  0.00    -0.050  C
HETATM   99 C99  LIG A   1      -1.799  -4.955   0.885  1.00  0.00    -0.041  C
HETATM  100 C100 LIG A   1      -2.942  -5.934   1.163  1.00  0.00    -0.008  C
HETATM  101 N101 LIG A   1      -3.783  -5.434   2.244  1.00  0.00    -0.330  N
HETATM  102 N102 LIG A   1       0.520  -3.899  -3.656  1.00  0.00    -0.345  N
HETATM  103 C103 LIG A   1      -0.154  -3.864  -4.950  1.00  0.00     0.097  C
HETATM  104 C104 LIG A   1      -1.636  -3.977  -4.764  1.00  0.00     0.240  C
HETATM  105 O105 LIG A   1      -2.288  -4.808  -5.452  1.00  0.00    -0.273  O
HETATM  106 N106 LIG A   1      -2.309  -3.119  -3.831  1.00  0.00    -0.342  N
HETATM  107 C107 LIG A   1      -3.739  -3.247  -3.533  1.00  0.00     0.112  C
HETATM  108 C108 LIG A   1      -4.237  -1.991  -2.860  1.00  0.00     0.243  C
HETATM  109 O109 LIG A   1      -5.148  -1.316  -3.415  1.00  0.00    -0.273  O
HETATM  110 C110 LIG A   1      -3.988  -4.496  -2.663  1.00  0.00     0.002  C
HETATM  111 C111 LIG A   1      -5.446  -4.665  -2.316  1.00  0.00    -0.045  C
HETATM  112 C112 LIG A   1      -6.353  -5.137  -3.279  1.00  0.00    -0.059  C
HETATM  113 C113 LIG A   1      -5.917  -4.313  -1.041  1.00  0.00    -0.059  C
HETATM  114 C114 LIG A   1      -7.711  -5.259  -2.966  1.00  0.00    -0.062  C
HETATM  115 C115 LIG A   1      -7.275  -4.432  -0.733  1.00  0.00    -0.062  C
HETATM  116 C116 LIG A   1      -8.172  -4.906  -1.695  1.00  0.00    -0.062  C
HETATM  117 N117 LIG A   1      -3.684  -1.567  -1.604  1.00  0.00    -0.340  N
HETATM  118 C118 LIG A   1      -4.122  -0.350  -0.913  1.00  0.00     0.131  C
HETATM  119 C119 LIG A   1      -2.948   0.458  -0.402  1.00  0.00     0.245  C
HETATM  120 O120 LIG A   1      -3.180   1.524   0.231  1.00  0.00    -0.273  O
HETATM  121 C121 LIG A   1      -5.070  -0.728   0.235  1.00  0.00     0.072  C
HETATM  122 O122 LIG A   1      -4.369  -1.319   1.296  1.00  0.00    -0.394  O
HETATM  123 N123 LIG A   1      -1.587   0.056  -0.645  1.00  0.00    -0.342  N
HETATM  124 C124 LIG A   1      -0.451   0.588   0.124  1.00  0.00     0.109  C
HETATM  125 C125 LIG A   1       0.841  -0.043  -0.339  1.00  0.00     0.243  C
HETATM  126 O126 LIG A   1       0.910  -1.296  -0.440  1.00  0.00    -0.273  O
HETATM  127 C127 LIG A   1      -0.645   0.383   1.644  1.00  0.00    -0.015  C
HETATM  128 C128 LIG A   1      -0.933  -1.075   2.054  1.00  0.00    -0.005  C
HETATM  129 S129 LIG A   1      -1.913  -1.144   3.599  1.00  0.00    -0.165  S
HETATM  130 C130 LIG A   1      -0.539  -0.753   4.728  1.00  0.00    -0.018  C
HETATM  131 N131 LIG A   1       1.988   0.763  -0.651  1.00  0.00    -0.341  N
HETATM  132 C132 LIG A   1       3.097   0.245  -1.464  1.00  0.00     0.127  C
HETATM  133 C133 LIG A   1       4.404   0.874  -1.063  1.00  0.00     0.326  C
HETATM  134 O134 LIG A   1       5.455   0.182  -1.046  1.00  0.00    -0.250  O
HETATM  135 C135 LIG A   1       2.802   0.449  -2.964  1.00  0.00    -0.020  C
HETATM  136 C136 LIG A   1       2.823   1.927  -3.393  1.00  0.00    -0.033  C
HETATM  137 C137 LIG A   1       2.273   2.109  -4.808  1.00  0.00     0.018  C
HETATM  138 N138 LIG A   1       2.363   3.510  -5.220  1.00  0.00    -0.357  N
HETATM  139 C139 LIG A   1       1.697   4.006  -6.388  1.00  0.00     0.185  C
HETATM  140 N140 LIG A   1       1.019   3.202  -7.145  1.00  0.00    -0.270  N
HETATM  141 N141 LIG A   1       1.775   5.397  -6.708  1.00  0.00    -0.370  N
HETATM  142 O142 LIG A   1       4.476   2.232  -0.771  1.00  0.00    -0.480  O
ENDROOT
TORSDOF 0
