ROOT
HETATM    1 N1   LIG A   1       8.553  -0.053  -1.856  1.00  0.00    -0.320  N
HETATM    2 C2   LIG A   1       8.094  -0.950  -0.794  1.00  0.00     0.084  C
HETATM    3 C3   LIG A   1       7.302  -2.091  -1.387  1.00  0.00     0.237  C
HETATM    4 O4   LIG A   1       6.155  -1.870  -1.863  1.00  0.00    -0.273  O
HETATM    5 C5   LIG A   1       7.234  -0.191   0.239  1.00  0.00    -0.027  C
HETATM    6 C6   LIG A   1       8.039   0.719   1.197  1.00  0.00    -0.045  C
HETATM    7 C7   LIG A   1       7.144   1.158   2.366  1.00  0.00    -0.063  C
HETATM    8 C8   LIG A   1       8.604   1.958   0.487  1.00  0.00    -0.063  C
HETATM    9 N9   LIG A   1       7.864  -3.412  -1.426  1.00  0.00    -0.343  N
HETATM   10 C10  LIG A   1       7.150  -4.604  -1.896  1.00  0.00     0.110  C
HETATM   11 C11  LIG A   1       6.839  -4.469  -3.374  1.00  0.00     0.243  C
HETATM   12 O12  LIG A   1       7.755  -4.743  -4.197  1.00  0.00    -0.273  O
HETATM   13 C13  LIG A   1       5.935  -4.951  -0.983  1.00  0.00    -0.015  C
HETATM   14 C14  LIG A   1       5.268  -6.269  -1.417  1.00  0.00    -0.060  C
HETATM   15 C15  LIG A   1       6.305  -4.986   0.524  1.00  0.00    -0.051  C
HETATM   16 C16  LIG A   1       7.377  -6.013   0.897  1.00  0.00    -0.065  C
HETATM   17 N17  LIG A   1       5.570  -3.991  -3.856  1.00  0.00    -0.340  N
HETATM   18 C18  LIG A   1       5.303  -3.780  -5.281  1.00  0.00     0.131  C
HETATM   19 C19  LIG A   1       5.494  -2.325  -5.626  1.00  0.00     0.245  C
HETATM   20 O20  LIG A   1       6.328  -2.015  -6.519  1.00  0.00    -0.273  O
HETATM   21 C21  LIG A   1       3.892  -4.263  -5.628  1.00  0.00     0.072  C
HETATM   22 O22  LIG A   1       3.673  -4.159  -7.008  1.00  0.00    -0.394  O
HETATM   23 N23  LIG A   1       4.743  -1.299  -4.951  1.00  0.00    -0.342  N
HETATM   24 C24  LIG A   1       4.849   0.120  -5.311  1.00  0.00     0.116  C
HETATM   25 C25  LIG A   1       4.772   0.976  -4.071  1.00  0.00     0.243  C
HETATM   26 O26  LIG A   1       5.803   1.588  -3.682  1.00  0.00    -0.273  O
HETATM   27 C27  LIG A   1       3.744   0.514  -6.310  1.00  0.00     0.056  C
HETATM   28 C28  LIG A   1       3.973  -0.106  -7.657  1.00  0.00     0.220  C
HETATM   29 O29  LIG A   1       4.866   0.359  -8.415  1.00  0.00    -0.275  O
HETATM   30 N30  LIG A   1       3.206  -1.233  -8.079  1.00  0.00    -0.370  N
HETATM   31 N31  LIG A   1       3.541   1.110  -3.344  1.00  0.00    -0.340  N
HETATM   32 C32  LIG A   1       3.355   2.124  -2.298  1.00  0.00     0.134  C
HETATM   33 C33  LIG A   1       3.663   1.537  -0.943  1.00  0.00     0.245  C
HETATM   34 O34  LIG A   1       4.390   2.186  -0.142  1.00  0.00    -0.273  O
HETATM   35 C35  LIG A   1       1.926   2.710  -2.337  1.00  0.00     0.080  C
HETATM   36 O36  LIG A   1       0.976   1.691  -2.160  1.00  0.00    -0.391  O
HETATM   37 C37  LIG A   1       1.662   3.437  -3.661  1.00  0.00    -0.036  C
HETATM   38 N38  LIG A   1       3.113   0.269  -0.553  1.00  0.00    -0.342  N
HETATM   39 C39  LIG A   1       3.381  -0.349   0.751  1.00  0.00     0.108  C
HETATM   40 C40  LIG A   1       3.016  -1.814   0.718  1.00  0.00     0.243  C
HETATM   41 O41  LIG A   1       3.864  -2.668   1.090  1.00  0.00    -0.273  O
HETATM   42 C42  LIG A   1       2.600   0.372   1.867  1.00  0.00    -0.024  C
HETATM   43 C43  LIG A   1       3.071  -0.067   3.263  1.00  0.00    -0.050  C
HETATM   44 C44  LIG A   1       2.210   0.566   4.358  1.00  0.00    -0.041  C
HETATM   45 C45  LIG A   1       2.664   0.120   5.749  1.00  0.00    -0.008  C
HETATM   46 N46  LIG A   1       1.755   0.643   6.763  1.00  0.00    -0.330  N
HETATM   47 N47  LIG A   1       1.698  -2.218   0.306  1.00  0.00    -0.343  N
HETATM   48 C48  LIG A   1       1.165  -3.582   0.373  1.00  0.00     0.108  C
HETATM   49 C49  LIG A   1       0.858  -3.934   1.805  1.00  0.00     0.243  C
HETATM   50 O50  LIG A   1       1.795  -4.197   2.607  1.00  0.00    -0.273  O
HETATM   51 C51  LIG A   1       2.095  -4.607  -0.316  1.00  0.00    -0.024  C
HETATM   52 C52  LIG A   1       1.365  -5.906  -0.713  1.00  0.00    -0.050  C
HETATM   53 C53  LIG A   1       0.510  -5.785  -1.989  1.00  0.00    -0.041  C
HETATM   54 C54  LIG A   1       1.356  -5.686  -3.265  1.00  0.00    -0.008  C
HETATM   55 N55  LIG A   1       0.493  -5.719  -4.441  1.00  0.00    -0.330  N
HETATM   56 N56  LIG A   1      -0.498  -3.891   2.272  1.00  0.00    -0.342  N
HETATM   57 C57  LIG A   1      -0.836  -3.744   3.691  1.00  0.00     0.112  C
HETATM   58 C58  LIG A   1      -2.311  -3.998   3.897  1.00  0.00     0.243  C
HETATM   59 O59  LIG A   1      -2.678  -4.903   4.695  1.00  0.00    -0.273  O
HETATM   60 C60  LIG A   1      -0.438  -2.338   4.179  1.00  0.00     0.002  C
HETATM   61 C61  LIG A   1      -0.709  -2.149   5.650  1.00  0.00    -0.045  C
HETATM   62 C62  LIG A   1       0.227  -2.583   6.602  1.00  0.00    -0.059  C
HETATM   63 C63  LIG A   1      -1.913  -1.568   6.083  1.00  0.00    -0.059  C
HETATM   64 C64  LIG A   1      -0.024  -2.408   7.966  1.00  0.00    -0.062  C
HETATM   65 C65  LIG A   1      -2.161  -1.396   7.447  1.00  0.00    -0.062  C
HETATM   66 C66  LIG A   1      -1.215  -1.812   8.389  1.00  0.00    -0.062  C
HETATM   67 N67  LIG A   1      -3.288  -3.212   3.200  1.00  0.00    -0.345  N
HETATM   68 C68  LIG A   1      -4.720  -3.467   3.336  1.00  0.00     0.097  C
HETATM   69 C69  LIG A   1      -5.490  -2.649   2.343  1.00  0.00     0.240  C
HETATM   70 O70  LIG A   1      -5.538  -3.028   1.141  1.00  0.00    -0.273  O
HETATM   71 N71  LIG A   1      -6.116  -1.420   2.743  1.00  0.00    -0.341  N
HETATM   72 C72  LIG A   1      -6.739  -0.503   1.782  1.00  0.00     0.134  C
HETATM   73 C73  LIG A   1      -6.465   0.922   2.197  1.00  0.00     0.245  C
HETATM   74 O74  LIG A   1      -5.755   1.647   1.451  1.00  0.00    -0.273  O
HETATM   75 C75  LIG A   1      -8.251  -0.799   1.653  1.00  0.00     0.080  C
HETATM   76 O76  LIG A   1      -8.425  -2.140   1.271  1.00  0.00    -0.391  O
HETATM   77 C77  LIG A   1      -8.913   0.109   0.607  1.00  0.00    -0.036  C
HETATM   78 N78  LIG A   1      -6.999   1.454   3.424  1.00  0.00    -0.343  N
HETATM   79 C79  LIG A   1      -6.665   2.787   3.939  1.00  0.00     0.105  C
HETATM   80 C80  LIG A   1      -6.949   3.843   2.891  1.00  0.00     0.242  C
HETATM   81 O81  LIG A   1      -8.055   3.815   2.287  1.00  0.00    -0.273  O
HETATM   82 C82  LIG A   1      -5.217   2.792   4.442  1.00  0.00    -0.036  C
HETATM   83 N83  LIG A   1      -5.996   4.870   2.573  1.00  0.00    -0.342  N
HETATM   84 C84  LIG A   1      -5.839   5.390   1.212  1.00  0.00     0.110  C
HETATM   85 C85  LIG A   1      -4.501   4.935   0.679  1.00  0.00     0.243  C
HETATM   86 O86  LIG A   1      -4.464   4.169  -0.322  1.00  0.00    -0.273  O
HETATM   87 C87  LIG A   1      -5.989   6.938   1.194  1.00  0.00    -0.015  C
HETATM   88 C88  LIG A   1      -5.777   7.493  -0.230  1.00  0.00    -0.060  C
HETATM   89 C89  LIG A   1      -7.380   7.352   1.740  1.00  0.00    -0.051  C
HETATM   90 C90  LIG A   1      -7.519   8.859   1.959  1.00  0.00    -0.065  C
HETATM   91 N91  LIG A   1      -3.279   5.368   1.297  1.00  0.00    -0.343  N
HETATM   92 C92  LIG A   1      -1.962   5.022   0.754  1.00  0.00     0.105  C
HETATM   93 C93  LIG A   1      -1.589   3.612   1.127  1.00  0.00     0.243  C
HETATM   94 O94  LIG A   1      -1.017   2.884   0.272  1.00  0.00    -0.273  O
HETATM   95 C95  LIG A   1      -0.898   5.991   1.274  1.00  0.00    -0.036  C
HETATM   96 N96  LIG A   1      -1.808   3.124   2.459  1.00  0.00    -0.340  N
HETATM   97 C97  LIG A   1      -1.331   1.810   2.906  1.00  0.00     0.131  C
HETATM   98 C98  LIG A   1      -2.188   0.724   2.305  1.00  0.00     0.245  C
HETATM   99 O99  LIG A   1      -3.302   0.447   2.827  1.00  0.00    -0.273  O
HETATM  100 C100 LIG A   1      -1.341   1.735   4.441  1.00  0.00     0.072  C
HETATM  101 O101 LIG A   1      -0.450   2.679   4.967  1.00  0.00    -0.394  O
HETATM  102 N102 LIG A   1      -1.780   0.059   1.097  1.00  0.00    -0.342  N
HETATM  103 C103 LIG A   1      -2.771  -0.477   0.158  1.00  0.00     0.113  C
HETATM  104 C104 LIG A   1      -2.156  -1.541  -0.724  1.00  0.00     0.243  C
HETATM  105 O105 LIG A   1      -2.574  -2.727  -0.637  1.00  0.00    -0.273  O
HETATM  106 C106 LIG A   1      -3.365   0.673  -0.678  1.00  0.00     0.021  C
HETATM  107 C107 LIG A   1      -4.600   0.285  -1.444  1.00  0.00     0.061  C
HETATM  108 N108 LIG A   1      -5.019  -0.981  -1.654  1.00  0.00    -0.242  N
HETATM  109 C109 LIG A   1      -5.456   1.165  -2.067  1.00  0.00     0.024  C
HETATM  110 C110 LIG A   1      -6.136  -0.836  -2.397  1.00  0.00     0.092  C
HETATM  111 N111 LIG A   1      -6.422   0.452  -2.662  1.00  0.00    -0.351  N
HETATM  112 N112 LIG A   1      -1.139  -1.211  -1.684  1.00  0.00    -0.341  N
HETATM  113 C113 LIG A   1      -1.069  -1.878  -2.990  1.00  0.00     0.127  C
HETATM  114 C114 LIG A   1       0.350  -1.926  -3.499  1.00  0.00     0.326  C
HETATM  115 O115 LIG A   1       1.310  -2.027  -2.690  1.00  0.00    -0.250  O
HETATM  116 C116 LIG A   1      -2.027  -1.191  -3.989  1.00  0.00    -0.020  C
HETATM  117 C117 LIG A   1      -1.641   0.265  -4.312  1.00  0.00    -0.033  C
HETATM  118 C118 LIG A   1      -2.737   0.964  -5.120  1.00  0.00     0.018  C
HETATM  119 N119 LIG A   1      -2.338   2.333  -5.444  1.00  0.00    -0.357  N
HETATM  120 C120 LIG A   1      -2.319   3.395  -4.478  1.00  0.00     0.185  C
HETATM  121 N121 LIG A   1      -2.721   3.185  -3.264  1.00  0.00    -0.270  N
HETATM  122 N122 LIG A   1      -1.860   4.693  -4.864  1.00  0.00    -0.370  N
HETATM  123 O123 LIG A   1       0.605  -1.949  -4.867  1.00  0.00    -0.480  O
HETATM  124 H124 LIG A   1       7.733   0.274  -2.417  1.00  0.00     0.119  H
HETATM  125 H125 LIG A   1       9.177  -0.592  -2.501  1.00  0.00     0.119  H
HETATM  126 H126 LIG A   1       8.983  -1.363  -0.270  1.00  0.00     0.057  H
HETATM  127 H127 LIG A   1       6.453   0.402  -0.284  1.00  0.00     0.029  H
HETATM  128 H128 LIG A   1       6.714  -0.955   0.860  1.00  0.00     0.029  H
HETATM  129 H129 LIG A   1       8.887   0.140   1.624  1.00  0.00     0.030  H
HETATM  130 H130 LIG A   1       6.272   1.739   1.996  1.00  0.00     0.023  H
HETATM  131 H131 LIG A   1       6.773   0.271   2.922  1.00  0.00     0.023  H
HETATM  132 H132 LIG A   1       7.719   1.788   3.078  1.00  0.00     0.023  H
HETATM  133 H133 LIG A   1       9.047   2.659   1.226  1.00  0.00     0.023  H
HETATM  134 H134 LIG A   1       9.417   1.671  -0.211  1.00  0.00     0.023  H
HETATM  135 H135 LIG A   1       7.806   2.490  -0.074  1.00  0.00     0.023  H
HETATM  136 H136 LIG A   1       8.847  -3.541  -1.095  1.00  0.00     0.164  H
HETATM  137 H137 LIG A   1       7.855  -5.462  -1.821  1.00  0.00     0.064  H
HETATM  138 H138 LIG A   1       5.171  -4.152  -1.072  1.00  0.00     0.033  H
HETATM  139 H139 LIG A   1       6.020  -7.078  -1.534  1.00  0.00     0.023  H
HETATM  140 H140 LIG A   1       4.742  -6.138  -2.386  1.00  0.00     0.023  H
HETATM  141 H141 LIG A   1       4.517  -6.593  -0.668  1.00  0.00     0.023  H
HETATM  142 H142 LIG A   1       6.651  -3.979   0.846  1.00  0.00     0.027  H
HETATM  143 H143 LIG A   1       5.391  -5.204   1.118  1.00  0.00     0.027  H
HETATM  144 H144 LIG A   1       7.070  -7.036   0.599  1.00  0.00     0.023  H
HETATM  145 H145 LIG A   1       8.349  -5.761   0.426  1.00  0.00     0.023  H
HETATM  146 H146 LIG A   1       7.522  -6.004   1.998  1.00  0.00     0.023  H
HETATM  147 H147 LIG A   1       4.835  -3.687  -3.181  1.00  0.00     0.164  H
HETATM  148 H148 LIG A   1       6.009  -4.390  -5.889  1.00  0.00     0.066  H
HETATM  149 H149 LIG A   1       3.136  -3.666  -5.077  1.00  0.00     0.059  H
HETATM  150 H150 LIG A   1       3.789  -5.328  -5.320  1.00  0.00     0.059  H
HETATM  151 H151 LIG A   1       2.738  -4.454  -7.161  1.00  0.00     0.210  H
HETATM  152 H152 LIG A   1       4.020  -1.585  -4.252  1.00  0.00     0.164  H
HETATM  153 H153 LIG A   1       5.837   0.316  -5.785  1.00  0.00     0.064  H
HETATM  154 H154 LIG A   1       3.732   1.619  -6.434  1.00  0.00     0.039  H
HETATM  155 H155 LIG A   1       2.747   0.213  -5.923  1.00  0.00     0.039  H
HETATM  156 H156 LIG A   1       3.386  -1.674  -9.008  1.00  0.00     0.159  H
HETATM  157 H157 LIG A   1       2.457  -1.630  -7.470  1.00  0.00     0.159  H
HETATM  158 H158 LIG A   1       2.760   0.450  -3.557  1.00  0.00     0.164  H
HETATM  159 H159 LIG A   1       4.060   2.967  -2.475  1.00  0.00     0.066  H
HETATM  160 H160 LIG A   1       1.832   3.453  -1.510  1.00  0.00     0.062  H
HETATM  161 H161 LIG A   1       0.109   2.137  -1.977  1.00  0.00     0.211  H
HETATM  162 H162 LIG A   1       2.424   4.228  -3.828  1.00  0.00     0.026  H
HETATM  163 H163 LIG A   1       0.663   3.919  -3.632  1.00  0.00     0.026  H
HETATM  164 H164 LIG A   1       1.685   2.723  -4.512  1.00  0.00     0.026  H
HETATM  165 H165 LIG A   1       2.545  -0.248  -1.258  1.00  0.00     0.164  H
HETATM  166 H166 LIG A   1       4.465  -0.260   0.964  1.00  0.00     0.063  H
HETATM  167 H167 LIG A   1       2.746   1.470   1.777  1.00  0.00     0.029  H
HETATM  168 H168 LIG A   1       1.513   0.171   1.754  1.00  0.00     0.029  H
HETATM  169 H169 LIG A   1       3.004  -1.174   3.351  1.00  0.00     0.027  H
HETATM  170 H170 LIG A   1       4.132   0.234   3.404  1.00  0.00     0.027  H
HETATM  171 H171 LIG A   1       1.158   0.253   4.207  1.00  0.00     0.028  H
HETATM  172 H172 LIG A   1       2.267   1.674   4.286  1.00  0.00     0.028  H
HETATM  173 H173 LIG A   1       2.663  -0.991   5.800  1.00  0.00     0.043  H
HETATM  174 H174 LIG A   1       3.699   0.481   5.945  1.00  0.00     0.043  H
HETATM  175 H175 LIG A   1       2.038   0.239   7.685  1.00  0.00     0.118  H
HETATM  176 H176 LIG A   1       1.902   1.677   6.833  1.00  0.00     0.118  H
HETATM  177 H177 LIG A   1       1.027  -1.470   0.025  1.00  0.00     0.164  H
HETATM  178 H178 LIG A   1       0.206  -3.572  -0.183  1.00  0.00     0.063  H
HETATM  179 H179 LIG A   1       2.569  -4.145  -1.205  1.00  0.00     0.029  H
HETATM  180 H180 LIG A   1       2.923  -4.882   0.371  1.00  0.00     0.029  H
HETATM  181 H181 LIG A   1       2.113  -6.714  -0.860  1.00  0.00     0.027  H
HETATM  182 H182 LIG A   1       0.713  -6.232   0.126  1.00  0.00     0.027  H
HETATM  183 H183 LIG A   1      -0.174  -4.915  -1.926  1.00  0.00     0.028  H
HETATM  184 H184 LIG A   1      -0.125  -6.695  -2.062  1.00  0.00     0.028  H
HETATM  185 H185 LIG A   1       1.945  -4.746  -3.267  1.00  0.00     0.043  H
HETATM  186 H186 LIG A   1       2.062  -6.544  -3.310  1.00  0.00     0.043  H
HETATM  187 H187 LIG A   1       1.107  -5.718  -5.287  1.00  0.00     0.118  H
HETATM  188 H188 LIG A   1      -0.054  -4.827  -4.471  1.00  0.00     0.118  H
HETATM  189 H189 LIG A   1      -1.261  -3.872   1.558  1.00  0.00     0.164  H
HETATM  190 H190 LIG A   1      -0.263  -4.502   4.272  1.00  0.00     0.064  H
HETATM  191 H191 LIG A   1      -0.970  -1.563   3.588  1.00  0.00     0.034  H
HETATM  192 H192 LIG A   1       0.646  -2.177   3.994  1.00  0.00     0.034  H
HETATM  193 H193 LIG A   1       1.152  -3.050   6.287  1.00  0.00     0.063  H
HETATM  194 H194 LIG A   1      -2.655  -1.243   5.364  1.00  0.00     0.063  H
HETATM  195 H195 LIG A   1       0.706  -2.735   8.696  1.00  0.00     0.062  H
HETATM  196 H196 LIG A   1      -3.086  -0.939   7.775  1.00  0.00     0.062  H
HETATM  197 H197 LIG A   1      -1.408  -1.678   9.445  1.00  0.00     0.062  H
HETATM  198 H198 LIG A   1      -2.957  -2.445   2.572  1.00  0.00     0.164  H
HETATM  199 H199 LIG A   1      -4.926  -4.543   3.148  1.00  0.00     0.059  H
HETATM  200 H200 LIG A   1      -5.043  -3.225   4.371  1.00  0.00     0.059  H
HETATM  201 H201 LIG A   1      -6.169  -1.198   3.763  1.00  0.00     0.164  H
HETATM  202 H202 LIG A   1      -6.276  -0.656   0.783  1.00  0.00     0.066  H
HETATM  203 H203 LIG A   1      -8.743  -0.629   2.638  1.00  0.00     0.062  H
HETATM  204 H204 LIG A   1      -9.362  -2.384   1.493  1.00  0.00     0.211  H
HETATM  205 H205 LIG A   1      -8.421  -0.014  -0.381  1.00  0.00     0.026  H
HETATM  206 H206 LIG A   1      -8.852   1.174   0.915  1.00  0.00     0.026  H
HETATM  207 H207 LIG A   1      -9.987  -0.156   0.504  1.00  0.00     0.026  H
HETATM  208 H208 LIG A   1      -7.617   0.851   4.011  1.00  0.00     0.164  H
HETATM  209 H209 LIG A   1      -7.320   2.999   4.812  1.00  0.00     0.063  H
HETATM  210 H210 LIG A   1      -4.507   2.749   3.592  1.00  0.00     0.026  H
HETATM  211 H211 LIG A   1      -5.017   3.703   5.043  1.00  0.00     0.026  H
HETATM  212 H212 LIG A   1      -5.041   1.911   5.096  1.00  0.00     0.026  H
HETATM  213 H213 LIG A   1      -5.332   5.200   3.308  1.00  0.00     0.164  H
HETATM  214 H214 LIG A   1      -6.632   4.966   0.554  1.00  0.00     0.064  H
HETATM  215 H215 LIG A   1      -5.211   7.379   1.855  1.00  0.00     0.033  H
HETATM  216 H216 LIG A   1      -5.806   8.602  -0.230  1.00  0.00     0.023  H
HETATM  217 H217 LIG A   1      -6.559   7.109  -0.919  1.00  0.00     0.023  H
HETATM  218 H218 LIG A   1      -4.781   7.205  -0.624  1.00  0.00     0.023  H
HETATM  219 H219 LIG A   1      -7.556   6.866   2.723  1.00  0.00     0.027  H
HETATM  220 H220 LIG A   1      -8.180   7.006   1.050  1.00  0.00     0.027  H
HETATM  221 H221 LIG A   1      -6.667   9.248   2.557  1.00  0.00     0.023  H
HETATM  222 H222 LIG A   1      -8.460   9.066   2.511  1.00  0.00     0.023  H
HETATM  223 H223 LIG A   1      -7.571   9.397   0.990  1.00  0.00     0.023  H
HETATM  224 H224 LIG A   1      -3.334   5.955   2.160  1.00  0.00     0.164  H
HETATM  225 H225 LIG A   1      -1.989   5.119  -0.354  1.00  0.00     0.063  H
HETATM  226 H226 LIG A   1      -0.818   5.932   2.381  1.00  0.00     0.026  H
HETATM  227 H227 LIG A   1       0.091   5.749   0.827  1.00  0.00     0.026  H
HETATM  228 H228 LIG A   1      -1.165   7.031   0.990  1.00  0.00     0.026  H
HETATM  229 H229 LIG A   1      -2.267   3.762   3.149  1.00  0.00     0.164  H
HETATM  230 H230 LIG A   1      -0.279   1.675   2.573  1.00  0.00     0.066  H
HETATM  231 H231 LIG A   1      -1.035   0.720   4.766  1.00  0.00     0.059  H
HETATM  232 H232 LIG A   1      -2.365   1.932   4.829  1.00  0.00     0.059  H
HETATM  233 H233 LIG A   1      -0.500   2.584   5.954  1.00  0.00     0.210  H
HETATM  234 H234 LIG A   1      -0.797   0.192   0.770  1.00  0.00     0.164  H
HETATM  235 H235 LIG A   1      -3.595  -0.944   0.740  1.00  0.00     0.064  H
HETATM  236 H236 LIG A   1      -2.608   1.072  -1.381  1.00  0.00     0.036  H
HETATM  237 H237 LIG A   1      -3.635   1.509  -0.001  1.00  0.00     0.036  H
HETATM  238 H238 LIG A   1      -5.380   2.244  -2.090  1.00  0.00     0.084  H
HETATM  239 H239 LIG A   1      -6.734  -1.667  -2.744  1.00  0.00     0.104  H
HETATM  240 H240 LIG A   1      -7.227   0.819  -3.216  1.00  0.00     0.167  H
HETATM  241 H241 LIG A   1      -0.606  -0.324  -1.551  1.00  0.00     0.164  H
HETATM  242 H242 LIG A   1      -1.400  -2.934  -2.881  1.00  0.00     0.065  H
HETATM  243 H243 LIG A   1      -2.059  -1.778  -4.933  1.00  0.00     0.029  H
HETATM  244 H244 LIG A   1      -3.052  -1.214  -3.561  1.00  0.00     0.029  H
HETATM  245 H245 LIG A   1      -0.697   0.287  -4.897  1.00  0.00     0.029  H
HETATM  246 H246 LIG A   1      -1.472   0.830  -3.377  1.00  0.00     0.029  H
HETATM  247 H247 LIG A   1      -3.694   0.976  -4.553  1.00  0.00     0.049  H
HETATM  248 H248 LIG A   1      -2.907   0.402  -6.065  1.00  0.00     0.049  H
HETATM  249 H249 LIG A   1      -2.088   2.553  -6.434  1.00  0.00     0.163  H
HETATM  250 H250 LIG A   1      -2.716   3.941  -2.544  1.00  0.00     0.191  H
HETATM  251 H251 LIG A   1      -1.836   5.480  -4.177  1.00  0.00     0.159  H
HETATM  252 H252 LIG A   1      -1.531   4.869  -5.838  1.00  0.00     0.159  H
HETATM  253 H253 LIG A   1       1.553  -1.967  -5.217  1.00  0.00     0.296  H
ENDROOT
TORSDOF 0
