ROOT
HETATM    1 N1   LIG A   1       8.355  -0.083  -2.043  1.00  0.00    -0.320  N
HETATM    2 C2   LIG A   1       7.909  -0.978  -0.974  1.00  0.00     0.084  C
HETATM    3 C3   LIG A   1       7.083  -2.103  -1.554  1.00  0.00     0.237  C
HETATM    4 O4   LIG A   1       5.919  -1.863  -1.977  1.00  0.00    -0.273  O
HETATM    5 C5   LIG A   1       7.092  -0.213   0.088  1.00  0.00    -0.027  C
HETATM    6 C6   LIG A   1       7.934   0.704   1.007  1.00  0.00    -0.045  C
HETATM    7 C7   LIG A   1       7.111   1.099   2.242  1.00  0.00    -0.063  C
HETATM    8 C8   LIG A   1       8.415   1.970   0.281  1.00  0.00    -0.063  C
HETATM    9 N9   LIG A   1       7.636  -3.425  -1.648  1.00  0.00    -0.343  N
HETATM   10 C10  LIG A   1       6.903  -4.598  -2.140  1.00  0.00     0.110  C
HETATM   11 C11  LIG A   1       6.561  -4.414  -3.605  1.00  0.00     0.243  C
HETATM   12 O12  LIG A   1       7.452  -4.679  -4.457  1.00  0.00    -0.273  O
HETATM   13 C13  LIG A   1       5.706  -4.966  -1.210  1.00  0.00    -0.015  C
HETATM   14 C14  LIG A   1       5.020  -6.265  -1.673  1.00  0.00    -0.060  C
HETATM   15 C15  LIG A   1       6.112  -5.054   0.285  1.00  0.00    -0.051  C
HETATM   16 C16  LIG A   1       7.179  -6.106   0.600  1.00  0.00    -0.065  C
HETATM   17 N17  LIG A   1       5.288  -3.901  -4.043  1.00  0.00    -0.340  N
HETATM   18 C18  LIG A   1       4.993  -3.639  -5.454  1.00  0.00     0.131  C
HETATM   19 C19  LIG A   1       5.170  -2.171  -5.749  1.00  0.00     0.245  C
HETATM   20 O20  LIG A   1       5.979  -1.825  -6.653  1.00  0.00    -0.273  O
HETATM   21 C21  LIG A   1       3.578  -4.116  -5.792  1.00  0.00     0.072  C
HETATM   22 O22  LIG A   1       3.327  -3.947  -7.160  1.00  0.00    -0.394  O
HETATM   23 N23  LIG A   1       4.433  -1.173  -5.019  1.00  0.00    -0.342  N
HETATM   24 C24  LIG A   1       4.526   0.259  -5.330  1.00  0.00     0.116  C
HETATM   25 C25  LIG A   1       4.511   1.069  -4.059  1.00  0.00     0.243  C
HETATM   26 O26  LIG A   1       5.570   1.640  -3.683  1.00  0.00    -0.273  O
HETATM   27 C27  LIG A   1       3.380   0.689  -6.265  1.00  0.00     0.056  C
HETATM   28 C28  LIG A   1       3.556   0.128  -7.646  1.00  0.00     0.220  C
HETATM   29 O29  LIG A   1       4.427   0.620  -8.412  1.00  0.00    -0.275  O
HETATM   30 N30  LIG A   1       2.763  -0.971  -8.092  1.00  0.00    -0.370  N
HETATM   31 N31  LIG A   1       3.310   1.203  -3.282  1.00  0.00    -0.340  N
HETATM   32 C32  LIG A   1       3.182   2.195  -2.206  1.00  0.00     0.134  C
HETATM   33 C33  LIG A   1       3.493   1.566  -0.871  1.00  0.00     0.245  C
HETATM   34 O34  LIG A   1       4.244   2.179  -0.065  1.00  0.00    -0.273  O
HETATM   35 C35  LIG A   1       1.781   2.843  -2.207  1.00  0.00     0.080  C
HETATM   36 O36  LIG A   1       0.790   1.863  -2.047  1.00  0.00    -0.391  O
HETATM   37 C37  LIG A   1       1.533   3.623  -3.504  1.00  0.00    -0.036  C
HETATM   38 N38  LIG A   1       2.923   0.300  -0.503  1.00  0.00    -0.342  N
HETATM   39 C39  LIG A   1       3.252  -0.376   0.758  1.00  0.00     0.108  C
HETATM   40 C40  LIG A   1       2.884  -1.839   0.683  1.00  0.00     0.243  C
HETATM   41 O41  LIG A   1       3.749  -2.706   0.979  1.00  0.00    -0.273  O
HETATM   42 C42  LIG A   1       2.532   0.299   1.942  1.00  0.00    -0.024  C
HETATM   43 C43  LIG A   1       3.138  -0.121   3.289  1.00  0.00    -0.050  C
HETATM   44 C44  LIG A   1       2.356   0.485   4.458  1.00  0.00    -0.041  C
HETATM   45 C45  LIG A   1       2.978   0.104   5.802  1.00  0.00    -0.008  C
HETATM   46 N46  LIG A   1       2.136   0.582   6.894  1.00  0.00    -0.330  N
HETATM   47 N47  LIG A   1       1.549  -2.231   0.319  1.00  0.00    -0.343  N
HETATM   48 C48  LIG A   1       1.024  -3.599   0.361  1.00  0.00     0.108  C
HETATM   49 C49  LIG A   1       0.821  -4.016   1.794  1.00  0.00     0.243  C
HETATM   50 O50  LIG A   1       1.808  -4.368   2.497  1.00  0.00    -0.273  O
HETATM   51 C51  LIG A   1       1.907  -4.585  -0.438  1.00  0.00    -0.024  C
HETATM   52 C52  LIG A   1       1.146  -5.859  -0.858  1.00  0.00    -0.050  C
HETATM   53 C53  LIG A   1       0.254  -5.669  -2.100  1.00  0.00    -0.041  C
HETATM   54 C54  LIG A   1       1.062  -5.604  -3.402  1.00  0.00    -0.008  C
HETATM   55 N55  LIG A   1       0.160  -5.529  -4.547  1.00  0.00    -0.330  N
HETATM   56 N56  LIG A   1      -0.485  -3.926   2.384  1.00  0.00    -0.342  N
HETATM   57 C57  LIG A   1      -0.677  -3.815   3.833  1.00  0.00     0.112  C
HETATM   58 C58  LIG A   1      -2.132  -4.019   4.186  1.00  0.00     0.243  C
HETATM   59 O59  LIG A   1      -2.443  -4.902   5.032  1.00  0.00    -0.273  O
HETATM   60 C60  LIG A   1      -0.178  -2.442   4.321  1.00  0.00     0.002  C
HETATM   61 C61  LIG A   1      -0.196  -2.337   5.824  1.00  0.00    -0.045  C
HETATM   62 C62  LIG A   1       0.890  -2.814   6.576  1.00  0.00    -0.059  C
HETATM   63 C63  LIG A   1      -1.307  -1.790   6.488  1.00  0.00    -0.059  C
HETATM   64 C64  LIG A   1       0.878  -2.715   7.971  1.00  0.00    -0.062  C
HETATM   65 C65  LIG A   1      -1.316  -1.695   7.883  1.00  0.00    -0.062  C
HETATM   66 C66  LIG A   1      -0.223  -2.152   8.623  1.00  0.00    -0.062  C
HETATM   67 N67  LIG A   1      -3.151  -3.204   3.588  1.00  0.00    -0.345  N
HETATM   68 C68  LIG A   1      -4.562  -3.350   3.942  1.00  0.00     0.097  C
HETATM   69 C69  LIG A   1      -5.434  -2.652   2.939  1.00  0.00     0.240  C
HETATM   70 O70  LIG A   1      -5.295  -2.921   1.715  1.00  0.00    -0.273  O
HETATM   71 N71  LIG A   1      -6.437  -1.716   3.368  1.00  0.00    -0.341  N
HETATM   72 C72  LIG A   1      -7.215  -0.905   2.428  1.00  0.00     0.134  C
HETATM   73 C73  LIG A   1      -6.681   0.508   2.449  1.00  0.00     0.245  C
HETATM   74 O74  LIG A   1      -5.743   0.794   1.660  1.00  0.00    -0.273  O
HETATM   75 C75  LIG A   1      -8.725  -1.036   2.734  1.00  0.00     0.080  C
HETATM   76 O76  LIG A   1      -9.086  -2.391   2.639  1.00  0.00    -0.391  O
HETATM   77 C77  LIG A   1      -9.575  -0.222   1.748  1.00  0.00    -0.036  C
HETATM   78 N78  LIG A   1      -7.159   1.502   3.377  1.00  0.00    -0.343  N
HETATM   79 C79  LIG A   1      -6.579   2.849   3.489  1.00  0.00     0.105  C
HETATM   80 C80  LIG A   1      -6.594   3.577   2.159  1.00  0.00     0.242  C
HETATM   81 O81  LIG A   1      -7.375   3.195   1.245  1.00  0.00    -0.273  O
HETATM   82 C82  LIG A   1      -5.164   2.753   4.073  1.00  0.00    -0.036  C
HETATM   83 N83  LIG A   1      -5.778   4.741   1.955  1.00  0.00    -0.342  N
HETATM   84 C84  LIG A   1      -5.345   5.178   0.623  1.00  0.00     0.110  C
HETATM   85 C85  LIG A   1      -3.899   4.790   0.429  1.00  0.00     0.243  C
HETATM   86 O86  LIG A   1      -3.581   4.080  -0.562  1.00  0.00    -0.273  O
HETATM   87 C87  LIG A   1      -5.564   6.709   0.450  1.00  0.00    -0.015  C
HETATM   88 C88  LIG A   1      -5.082   7.178  -0.938  1.00  0.00    -0.060  C
HETATM   89 C89  LIG A   1      -7.058   7.067   0.660  1.00  0.00    -0.051  C
HETATM   90 C90  LIG A   1      -7.314   8.575   0.718  1.00  0.00    -0.065  C
HETATM   91 N91  LIG A   1      -2.886   5.252   1.336  1.00  0.00    -0.343  N
HETATM   92 C92  LIG A   1      -1.460   4.989   1.112  1.00  0.00     0.105  C
HETATM   93 C93  LIG A   1      -1.117   3.573   1.487  1.00  0.00     0.243  C
HETATM   94 O94  LIG A   1      -0.351   2.909   0.739  1.00  0.00    -0.273  O
HETATM   95 C95  LIG A   1      -0.604   5.961   1.926  1.00  0.00    -0.036  C
HETATM   96 N96  LIG A   1      -1.591   3.007   2.719  1.00  0.00    -0.340  N
HETATM   97 C97  LIG A   1      -1.156   1.692   3.201  1.00  0.00     0.131  C
HETATM   98 C98  LIG A   1      -2.015   0.616   2.586  1.00  0.00     0.245  C
HETATM   99 O99  LIG A   1      -3.065   0.238   3.174  1.00  0.00    -0.273  O
HETATM  100 C100 LIG A   1      -1.207   1.650   4.736  1.00  0.00     0.072  C
HETATM  101 O101 LIG A   1      -0.318   2.593   5.266  1.00  0.00    -0.394  O
HETATM  102 N102 LIG A   1      -1.686   0.075   1.297  1.00  0.00    -0.342  N
HETATM  103 C103 LIG A   1      -2.738  -0.367   0.379  1.00  0.00     0.113  C
HETATM  104 C104 LIG A   1      -2.210  -1.393  -0.594  1.00  0.00     0.243  C
HETATM  105 O105 LIG A   1      -2.640  -2.577  -0.530  1.00  0.00    -0.273  O
HETATM  106 C106 LIG A   1      -3.324   0.858  -0.350  1.00  0.00     0.021  C
HETATM  107 C107 LIG A   1      -4.510   0.527  -1.212  1.00  0.00     0.061  C
HETATM  108 N108 LIG A   1      -5.282  -0.572  -1.076  1.00  0.00    -0.242  N
HETATM  109 C109 LIG A   1      -5.045   1.353  -2.174  1.00  0.00     0.024  C
HETATM  110 C110 LIG A   1      -6.261  -0.397  -1.987  1.00  0.00     0.092  C
HETATM  111 N111 LIG A   1      -6.143   0.760  -2.665  1.00  0.00    -0.351  N
HETATM  112 N112 LIG A   1      -1.257  -1.033  -1.606  1.00  0.00    -0.341  N
HETATM  113 C113 LIG A   1      -1.251  -1.677  -2.925  1.00  0.00     0.127  C
HETATM  114 C114 LIG A   1       0.153  -1.787  -3.463  1.00  0.00     0.326  C
HETATM  115 O115 LIG A   1       1.120  -1.973  -2.679  1.00  0.00    -0.250  O
HETATM  116 C116 LIG A   1      -2.192  -0.921  -3.890  1.00  0.00    -0.020  C
HETATM  117 C117 LIG A   1      -1.754   0.530  -4.169  1.00  0.00    -0.033  C
HETATM  118 C118 LIG A   1      -2.677   1.202  -5.191  1.00  0.00     0.018  C
HETATM  119 N119 LIG A   1      -2.105   2.468  -5.649  1.00  0.00    -0.357  N
HETATM  120 C120 LIG A   1      -2.033   3.648  -4.835  1.00  0.00     0.185  C
HETATM  121 N121 LIG A   1      -2.484   3.637  -3.621  1.00  0.00    -0.270  N
HETATM  122 N122 LIG A   1      -1.465   4.844  -5.375  1.00  0.00    -0.370  N
HETATM  123 O123 LIG A   1       0.380  -1.767  -4.836  1.00  0.00    -0.480  O
ENDROOT
TORSDOF 0
