ROOT
HETATM    1 N1   LIG A   1       1.084  -5.212  -7.021  1.00  0.00    -0.320  N
HETATM    2 C2   LIG A   1       0.425  -4.398  -8.049  1.00  0.00     0.087  C
HETATM    3 C3   LIG A   1      -1.009  -4.833  -8.236  1.00  0.00     0.237  C
HETATM    4 O4   LIG A   1      -1.858  -3.986  -8.626  1.00  0.00    -0.273  O
HETATM    5 C5   LIG A   1       1.200  -4.439  -9.399  1.00  0.00    -0.020  C
HETATM    6 C6   LIG A   1       2.508  -3.633  -9.304  1.00  0.00    -0.061  C
HETATM    7 C7   LIG A   1       1.461  -5.890  -9.879  1.00  0.00    -0.052  C
HETATM    8 C8   LIG A   1       2.029  -5.957 -11.297  1.00  0.00    -0.065  C
HETATM    9 N9   LIG A   1      -1.411  -6.194  -8.003  1.00  0.00    -0.341  N
HETATM   10 C10  LIG A   1      -2.822  -6.580  -7.920  1.00  0.00     0.131  C
HETATM   11 C11  LIG A   1      -3.464  -5.903  -6.738  1.00  0.00     0.245  C
HETATM   12 O12  LIG A   1      -4.607  -5.385  -6.865  1.00  0.00    -0.273  O
HETATM   13 C13  LIG A   1      -2.956  -8.106  -7.802  1.00  0.00     0.072  C
HETATM   14 O14  LIG A   1      -4.303  -8.493  -7.866  1.00  0.00    -0.394  O
HETATM   15 N15  LIG A   1      -2.786  -5.861  -5.473  1.00  0.00    -0.342  N
HETATM   16 C16  LIG A   1      -3.242  -5.011  -4.371  1.00  0.00     0.108  C
HETATM   17 C17  LIG A   1      -2.795  -3.594  -4.635  1.00  0.00     0.243  C
HETATM   18 O18  LIG A   1      -1.625  -3.235  -4.328  1.00  0.00    -0.273  O
HETATM   19 C19  LIG A   1      -2.689  -5.528  -3.023  1.00  0.00    -0.021  C
HETATM   20 C20  LIG A   1      -3.141  -6.966  -2.668  1.00  0.00    -0.045  C
HETATM   21 C21  LIG A   1      -2.244  -7.543  -1.563  1.00  0.00    -0.063  C
HETATM   22 C22  LIG A   1      -4.608  -7.014  -2.222  1.00  0.00    -0.063  C
HETATM   23 N23  LIG A   1      -3.663  -2.686  -5.328  1.00  0.00    -0.343  N
HETATM   24 C24  LIG A   1      -3.169  -1.464  -5.974  1.00  0.00     0.105  C
HETATM   25 C25  LIG A   1      -3.323  -0.274  -5.064  1.00  0.00     0.242  C
HETATM   26 O26  LIG A   1      -4.167  -0.311  -4.128  1.00  0.00    -0.273  O
HETATM   27 C27  LIG A   1      -3.931  -1.223  -7.278  1.00  0.00    -0.036  C
HETATM   28 N28  LIG A   1      -2.550   0.917  -5.311  1.00  0.00    -0.342  N
HETATM   29 C29  LIG A   1      -2.788   2.235  -4.697  1.00  0.00     0.110  C
HETATM   30 C30  LIG A   1      -3.072   2.115  -3.213  1.00  0.00     0.246  C
HETATM   31 O31  LIG A   1      -4.203   2.427  -2.752  1.00  0.00    -0.272  O
HETATM   32 C32  LIG A   1      -3.846   3.062  -5.491  1.00  0.00    -0.015  C
HETATM   33 C33  LIG A   1      -3.263   3.506  -6.846  1.00  0.00    -0.060  C
HETATM   34 C34  LIG A   1      -5.185   2.308  -5.697  1.00  0.00    -0.051  C
HETATM   35 C35  LIG A   1      -6.345   3.243  -6.038  1.00  0.00    -0.065  C
HETATM   36 N36  LIG A   1      -2.071   1.599  -2.323  1.00  0.00    -0.329  N
HETATM   37 C37  LIG A   1      -2.382   0.779  -1.161  1.00  0.00     0.111  C
HETATM   38 C38  LIG A   1      -2.898   1.620  -0.022  1.00  0.00     0.243  C
HETATM   39 O39  LIG A   1      -2.843   2.879  -0.089  1.00  0.00    -0.273  O
HETATM   40 C40  LIG A   1      -1.052   0.125  -0.788  1.00  0.00    -0.022  C
HETATM   41 C41  LIG A   1       0.016   1.048  -1.359  1.00  0.00    -0.033  C
HETATM   42 C42  LIG A   1      -0.643   1.753  -2.535  1.00  0.00     0.021  C
HETATM   43 N43  LIG A   1      -3.403   0.981   1.159  1.00  0.00    -0.343  N
HETATM   44 C44  LIG A   1      -3.839   1.742   2.336  1.00  0.00     0.108  C
HETATM   45 C45  LIG A   1      -2.716   2.562   2.919  1.00  0.00     0.243  C
HETATM   46 O46  LIG A   1      -1.518   2.274   2.657  1.00  0.00    -0.273  O
HETATM   47 C47  LIG A   1      -4.525   0.839   3.392  1.00  0.00    -0.021  C
HETATM   48 C48  LIG A   1      -3.590   0.013   4.311  1.00  0.00    -0.045  C
HETATM   49 C49  LIG A   1      -4.422  -0.694   5.391  1.00  0.00    -0.063  C
HETATM   50 C50  LIG A   1      -2.774  -1.019   3.530  1.00  0.00    -0.063  C
HETATM   51 N51  LIG A   1      -3.013   3.640   3.818  1.00  0.00    -0.343  N
HETATM   52 C52  LIG A   1      -2.626   5.042   3.601  1.00  0.00     0.105  C
HETATM   53 C53  LIG A   1      -3.823   5.832   3.136  1.00  0.00     0.243  C
HETATM   54 O54  LIG A   1      -4.216   6.813   3.824  1.00  0.00    -0.273  O
HETATM   55 C55  LIG A   1      -1.447   5.212   2.634  1.00  0.00    -0.036  C
HETATM   56 N56  LIG A   1      -4.519   5.472   1.931  1.00  0.00    -0.340  N
HETATM   57 C57  LIG A   1      -5.818   6.043   1.551  1.00  0.00     0.131  C
HETATM   58 C58  LIG A   1      -6.938   5.046   1.791  1.00  0.00     0.245  C
HETATM   59 O59  LIG A   1      -8.056   5.230   1.235  1.00  0.00    -0.273  O
HETATM   60 C60  LIG A   1      -5.748   6.487   0.082  1.00  0.00     0.072  C
HETATM   61 O61  LIG A   1      -6.886   7.231  -0.260  1.00  0.00    -0.394  O
HETATM   62 N62  LIG A   1      -6.773   3.951   2.711  1.00  0.00    -0.342  N
HETATM   63 C63  LIG A   1      -7.808   2.957   3.023  1.00  0.00     0.108  C
HETATM   64 C64  LIG A   1      -8.382   2.350   1.761  1.00  0.00     0.243  C
HETATM   65 O65  LIG A   1      -9.609   2.480   1.497  1.00  0.00    -0.273  O
HETATM   66 C66  LIG A   1      -8.892   3.563   3.943  1.00  0.00    -0.024  C
HETATM   67 C67  LIG A   1      -8.338   4.046   5.302  1.00  0.00    -0.050  C
HETATM   68 C68  LIG A   1      -8.559   3.055   6.461  1.00  0.00    -0.041  C
HETATM   69 C69  LIG A   1      -7.678   1.800   6.382  1.00  0.00    -0.008  C
HETATM   70 N70  LIG A   1      -8.286   0.789   5.521  1.00  0.00    -0.330  N
HETATM   71 N71  LIG A   1      -7.526   1.619   0.866  1.00  0.00    -0.342  N
HETATM   72 C72  LIG A   1      -8.016   0.950  -0.344  1.00  0.00     0.110  C
HETATM   73 C73  LIG A   1      -7.799  -0.539  -0.211  1.00  0.00     0.243  C
HETATM   74 O74  LIG A   1      -8.803  -1.303  -0.224  1.00  0.00    -0.273  O
HETATM   75 C75  LIG A   1      -7.326   1.508  -1.622  1.00  0.00    -0.015  C
HETATM   76 C76  LIG A   1      -7.974   0.930  -2.893  1.00  0.00    -0.060  C
HETATM   77 C77  LIG A   1      -7.286   3.057  -1.674  1.00  0.00    -0.051  C
HETATM   78 C78  LIG A   1      -8.657   3.730  -1.783  1.00  0.00    -0.065  C
HETATM   79 N79  LIG A   1      -6.476  -1.093  -0.089  1.00  0.00    -0.340  N
HETATM   80 C80  LIG A   1      -6.193  -2.490  -0.429  1.00  0.00     0.131  C
HETATM   81 C81  LIG A   1      -5.153  -3.070   0.506  1.00  0.00     0.245  C
HETATM   82 O82  LIG A   1      -5.546  -3.720   1.513  1.00  0.00    -0.273  O
HETATM   83 C83  LIG A   1      -5.790  -2.594  -1.908  1.00  0.00     0.072  C
HETATM   84 O84  LIG A   1      -5.556  -3.928  -2.260  1.00  0.00    -0.394  O
HETATM   85 N85  LIG A   1      -3.744  -2.891   0.285  1.00  0.00    -0.345  N
HETATM   86 C86  LIG A   1      -2.769  -3.788   0.909  1.00  0.00     0.097  C
HETATM   87 C87  LIG A   1      -1.363  -3.316   0.673  1.00  0.00     0.240  C
HETATM   88 O88  LIG A   1      -0.897  -2.393   1.392  1.00  0.00    -0.273  O
HETATM   89 N89  LIG A   1      -0.557  -3.912  -0.354  1.00  0.00    -0.342  N
HETATM   90 C90  LIG A   1       0.870  -3.605  -0.519  1.00  0.00     0.112  C
HETATM   91 C91  LIG A   1       1.227  -3.540  -1.983  1.00  0.00     0.243  C
HETATM   92 O92  LIG A   1       0.798  -4.425  -2.772  1.00  0.00    -0.273  O
HETATM   93 C93  LIG A   1       1.731  -4.682   0.160  1.00  0.00     0.002  C
HETATM   94 C94  LIG A   1       1.540  -4.694   1.654  1.00  0.00    -0.045  C
HETATM   95 C95  LIG A   1       0.639  -5.593   2.250  1.00  0.00    -0.059  C
HETATM   96 C96  LIG A   1       2.248  -3.789   2.462  1.00  0.00    -0.059  C
HETATM   97 C97  LIG A   1       0.473  -5.604   3.638  1.00  0.00    -0.062  C
HETATM   98 C98  LIG A   1       2.092  -3.816   3.850  1.00  0.00    -0.062  C
HETATM   99 C99  LIG A   1       1.206  -4.723   4.438  1.00  0.00    -0.062  C
HETATM  100 N100 LIG A   1       2.148  -2.542  -2.451  1.00  0.00    -0.340  N
HETATM  101 C101 LIG A   1       2.744  -2.589  -3.795  1.00  0.00     0.134  C
HETATM  102 C102 LIG A   1       4.020  -1.778  -3.853  1.00  0.00     0.245  C
HETATM  103 O103 LIG A   1       5.029  -2.279  -4.422  1.00  0.00    -0.273  O
HETATM  104 C104 LIG A   1       1.726  -2.192  -4.897  1.00  0.00     0.080  C
HETATM  105 O105 LIG A   1       2.343  -2.144  -6.160  1.00  0.00    -0.391  O
HETATM  106 C106 LIG A   1       0.963  -0.893  -4.612  1.00  0.00    -0.036  C
HETATM  107 N107 LIG A   1       4.100  -0.453  -3.301  1.00  0.00    -0.342  N
HETATM  108 C108 LIG A   1       5.374   0.268  -3.223  1.00  0.00     0.108  C
HETATM  109 C109 LIG A   1       6.266  -0.404  -2.211  1.00  0.00     0.243  C
HETATM  110 O110 LIG A   1       7.422  -0.774  -2.554  1.00  0.00    -0.273  O
HETATM  111 C111 LIG A   1       5.135   1.746  -2.838  1.00  0.00    -0.021  C
HETATM  112 C112 LIG A   1       6.411   2.622  -2.937  1.00  0.00    -0.045  C
HETATM  113 C113 LIG A   1       6.703   3.021  -4.391  1.00  0.00    -0.063  C
HETATM  114 C114 LIG A   1       6.267   3.878  -2.070  1.00  0.00    -0.063  C
HETATM  115 N115 LIG A   1       5.814  -0.601  -0.862  1.00  0.00    -0.343  N
HETATM  116 C116 LIG A   1       6.736  -0.957   0.223  1.00  0.00     0.105  C
HETATM  117 C117 LIG A   1       6.000  -1.484   1.431  1.00  0.00     0.242  C
HETATM  118 O118 LIG A   1       4.820  -1.112   1.671  1.00  0.00    -0.273  O
HETATM  119 C119 LIG A   1       7.577   0.260   0.612  1.00  0.00    -0.036  C
HETATM  120 N120 LIG A   1       6.677  -2.354   2.350  1.00  0.00    -0.343  N
HETATM  121 C121 LIG A   1       6.035  -2.866   3.568  1.00  0.00     0.108  C
HETATM  122 C122 LIG A   1       5.909  -1.784   4.614  1.00  0.00     0.243  C
HETATM  123 O123 LIG A   1       5.102  -1.956   5.566  1.00  0.00    -0.273  O
HETATM  124 C124 LIG A   1       6.820  -4.063   4.145  1.00  0.00    -0.021  C
HETATM  125 C125 LIG A   1       6.878  -5.286   3.195  1.00  0.00    -0.045  C
HETATM  126 C126 LIG A   1       5.492  -5.919   2.982  1.00  0.00    -0.063  C
HETATM  127 C127 LIG A   1       7.847  -6.333   3.756  1.00  0.00    -0.063  C
HETATM  128 N128 LIG A   1       6.711  -0.592   4.560  1.00  0.00    -0.342  N
HETATM  129 C129 LIG A   1       6.422   0.596   5.375  1.00  0.00     0.110  C
HETATM  130 C130 LIG A   1       6.461   1.838   4.512  1.00  0.00     0.243  C
HETATM  131 O131 LIG A   1       7.311   1.925   3.586  1.00  0.00    -0.273  O
HETATM  132 C132 LIG A   1       7.382   0.666   6.593  1.00  0.00    -0.018  C
HETATM  133 C133 LIG A   1       8.859   0.820   6.194  1.00  0.00    -0.060  C
HETATM  134 C134 LIG A   1       6.980   1.780   7.570  1.00  0.00    -0.060  C
HETATM  135 N135 LIG A   1       5.545   2.921   4.765  1.00  0.00    -0.343  N
HETATM  136 C136 LIG A   1       5.227   4.001   3.818  1.00  0.00     0.108  C
HETATM  137 C137 LIG A   1       4.481   3.449   2.631  1.00  0.00     0.243  C
HETATM  138 O138 LIG A   1       4.970   2.486   1.983  1.00  0.00    -0.273  O
HETATM  139 C139 LIG A   1       6.486   4.802   3.413  1.00  0.00    -0.024  C
HETATM  140 C140 LIG A   1       6.164   6.132   2.700  1.00  0.00    -0.050  C
HETATM  141 C141 LIG A   1       6.136   5.988   1.170  1.00  0.00    -0.041  C
HETATM  142 C142 LIG A   1       5.816   7.324   0.495  1.00  0.00    -0.008  C
HETATM  143 N143 LIG A   1       5.763   7.155  -0.953  1.00  0.00    -0.330  N
HETATM  144 N144 LIG A   1       3.218   4.019   2.238  1.00  0.00    -0.342  N
HETATM  145 C145 LIG A   1       2.307   3.378   1.280  1.00  0.00     0.116  C
HETATM  146 C146 LIG A   1       2.022   1.965   1.730  1.00  0.00     0.243  C
HETATM  147 O147 LIG A   1       2.391   0.977   1.036  1.00  0.00    -0.273  O
HETATM  148 C148 LIG A   1       2.868   3.475  -0.158  1.00  0.00     0.056  C
HETATM  149 C149 LIG A   1       2.678   4.841  -0.758  1.00  0.00     0.220  C
HETATM  150 O150 LIG A   1       2.812   5.874  -0.049  1.00  0.00    -0.275  O
HETATM  151 N151 LIG A   1       2.406   4.977  -2.153  1.00  0.00    -0.370  N
HETATM  152 N152 LIG A   1       1.392   1.757   3.002  1.00  0.00    -0.343  N
HETATM  153 C153 LIG A   1       1.479   0.474   3.708  1.00  0.00     0.105  C
HETATM  154 C154 LIG A   1       0.460   0.373   4.819  1.00  0.00     0.243  C
HETATM  155 O155 LIG A   1      -0.068   1.412   5.305  1.00  0.00    -0.273  O
HETATM  156 C156 LIG A   1       2.880   0.312   4.294  1.00  0.00    -0.036  C
HETATM  157 N157 LIG A   1       0.166  -0.910   5.389  1.00  0.00    -0.340  N
HETATM  158 C158 LIG A   1      -0.507  -1.055   6.684  1.00  0.00     0.131  C
HETATM  159 C159 LIG A   1       0.360  -0.504   7.787  1.00  0.00     0.245  C
HETATM  160 O160 LIG A   1      -0.173   0.169   8.712  1.00  0.00    -0.273  O
HETATM  161 C161 LIG A   1      -0.832  -2.529   6.957  1.00  0.00     0.072  C
HETATM  162 O162 LIG A   1      -1.621  -2.639   8.110  1.00  0.00    -0.394  O
HETATM  163 N163 LIG A   1       1.772  -0.778   7.814  1.00  0.00    -0.339  N
HETATM  164 C164 LIG A   1       2.644  -0.287   8.887  1.00  0.00     0.153  C
HETATM  165 C165 LIG A   1       2.740   1.212   8.801  1.00  0.00     0.328  C
HETATM  166 O166 LIG A   1       2.496   1.918   9.816  1.00  0.00    -0.250  O
HETATM  167 C167 LIG A   1       4.045  -0.935   8.788  1.00  0.00     0.082  C
HETATM  168 O168 LIG A   1       3.906  -2.333   8.768  1.00  0.00    -0.391  O
HETATM  169 C169 LIG A   1       4.940  -0.540   9.970  1.00  0.00    -0.036  C
HETATM  170 O170 LIG A   1       3.109   1.820   7.606  1.00  0.00    -0.480  O
ENDROOT
TORSDOF 0
