ROOT
HETATM    1 N1   LIG A   1       1.193  -5.285  -7.122  1.00  0.00    -0.320  N
HETATM    2 C2   LIG A   1       0.540  -4.500  -8.176  1.00  0.00     0.087  C
HETATM    3 C3   LIG A   1      -0.886  -4.959  -8.379  1.00  0.00     0.237  C
HETATM    4 O4   LIG A   1      -1.735  -4.137  -8.817  1.00  0.00    -0.273  O
HETATM    5 C5   LIG A   1       1.336  -4.556  -9.513  1.00  0.00    -0.020  C
HETATM    6 C6   LIG A   1       2.638  -3.739  -9.409  1.00  0.00    -0.061  C
HETATM    7 C7   LIG A   1       1.614  -6.012  -9.966  1.00  0.00    -0.052  C
HETATM    8 C8   LIG A   1       2.201  -6.096 -11.376  1.00  0.00    -0.065  C
HETATM    9 N9   LIG A   1      -1.278  -6.313  -8.098  1.00  0.00    -0.341  N
HETATM   10 C10  LIG A   1      -2.687  -6.715  -8.031  1.00  0.00     0.131  C
HETATM   11 C11  LIG A   1      -3.379  -5.981  -6.912  1.00  0.00     0.245  C
HETATM   12 O12  LIG A   1      -4.550  -5.547  -7.090  1.00  0.00    -0.273  O
HETATM   13 C13  LIG A   1      -2.803  -8.233  -7.825  1.00  0.00     0.072  C
HETATM   14 O14  LIG A   1      -4.142  -8.644  -7.905  1.00  0.00    -0.394  O
HETATM   15 N15  LIG A   1      -2.725  -5.807  -5.645  1.00  0.00    -0.342  N
HETATM   16 C16  LIG A   1      -3.271  -4.957  -4.585  1.00  0.00     0.108  C
HETATM   17 C17  LIG A   1      -2.786  -3.543  -4.797  1.00  0.00     0.243  C
HETATM   18 O18  LIG A   1      -1.747  -3.130  -4.213  1.00  0.00    -0.273  O
HETATM   19 C19  LIG A   1      -2.859  -5.505  -3.200  1.00  0.00    -0.021  C
HETATM   20 C20  LIG A   1      -3.412  -6.922  -2.909  1.00  0.00    -0.045  C
HETATM   21 C21  LIG A   1      -2.614  -7.585  -1.778  1.00  0.00    -0.063  C
HETATM   22 C22  LIG A   1      -4.903  -6.887  -2.542  1.00  0.00    -0.063  C
HETATM   23 N23  LIG A   1      -3.464  -2.695  -5.734  1.00  0.00    -0.343  N
HETATM   24 C24  LIG A   1      -2.878  -1.443  -6.230  1.00  0.00     0.105  C
HETATM   25 C25  LIG A   1      -3.111  -0.315  -5.258  1.00  0.00     0.242  C
HETATM   26 O26  LIG A   1      -4.001  -0.429  -4.372  1.00  0.00    -0.273  O
HETATM   27 C27  LIG A   1      -3.482  -1.085  -7.590  1.00  0.00    -0.036  C
HETATM   28 N28  LIG A   1      -2.353   0.904  -5.384  1.00  0.00    -0.342  N
HETATM   29 C29  LIG A   1      -2.685   2.188  -4.745  1.00  0.00     0.110  C
HETATM   30 C30  LIG A   1      -3.083   2.007  -3.293  1.00  0.00     0.246  C
HETATM   31 O31  LIG A   1      -4.266   2.235  -2.928  1.00  0.00    -0.272  O
HETATM   32 C32  LIG A   1      -3.704   3.012  -5.593  1.00  0.00    -0.015  C
HETATM   33 C33  LIG A   1      -3.024   3.540  -6.870  1.00  0.00    -0.060  C
HETATM   34 C34  LIG A   1      -4.988   2.220  -5.951  1.00  0.00    -0.051  C
HETATM   35 C35  LIG A   1      -6.154   3.131  -6.338  1.00  0.00    -0.065  C
HETATM   36 N36  LIG A   1      -2.133   1.530  -2.326  1.00  0.00    -0.329  N
HETATM   37 C37  LIG A   1      -2.501   0.681  -1.198  1.00  0.00     0.111  C
HETATM   38 C38  LIG A   1      -3.071   1.490  -0.056  1.00  0.00     0.243  C
HETATM   39 O39  LIG A   1      -3.177   2.743  -0.155  1.00  0.00    -0.273  O
HETATM   40 C40  LIG A   1      -1.189   0.012  -0.786  1.00  0.00    -0.022  C
HETATM   41 C41  LIG A   1      -0.094   0.948  -1.276  1.00  0.00    -0.033  C
HETATM   42 C42  LIG A   1      -0.694   1.687  -2.462  1.00  0.00     0.021  C
HETATM   43 N43  LIG A   1      -3.465   0.827   1.156  1.00  0.00    -0.343  N
HETATM   44 C44  LIG A   1      -3.837   1.568   2.369  1.00  0.00     0.108  C
HETATM   45 C45  LIG A   1      -2.690   2.402   2.883  1.00  0.00     0.243  C
HETATM   46 O46  LIG A   1      -1.517   2.185   2.475  1.00  0.00    -0.273  O
HETATM   47 C47  LIG A   1      -4.435   0.636   3.456  1.00  0.00    -0.021  C
HETATM   48 C48  LIG A   1      -3.428  -0.116   4.362  1.00  0.00    -0.045  C
HETATM   49 C49  LIG A   1      -4.190  -0.863   5.465  1.00  0.00    -0.063  C
HETATM   50 C50  LIG A   1      -2.561  -1.101   3.574  1.00  0.00    -0.063  C
HETATM   51 N51  LIG A   1      -2.928   3.410   3.875  1.00  0.00    -0.343  N
HETATM   52 C52  LIG A   1      -2.547   4.824   3.751  1.00  0.00     0.105  C
HETATM   53 C53  LIG A   1      -3.784   5.661   3.562  1.00  0.00     0.243  C
HETATM   54 O54  LIG A   1      -3.987   6.641   4.329  1.00  0.00    -0.273  O
HETATM   55 C55  LIG A   1      -1.540   5.099   2.625  1.00  0.00    -0.036  C
HETATM   56 N56  LIG A   1      -4.722   5.351   2.518  1.00  0.00    -0.340  N
HETATM   57 C57  LIG A   1      -6.056   5.955   2.436  1.00  0.00     0.131  C
HETATM   58 C58  LIG A   1      -7.128   4.884   2.515  1.00  0.00     0.245  C
HETATM   59 O59  LIG A   1      -8.266   5.104   2.017  1.00  0.00    -0.273  O
HETATM   60 C60  LIG A   1      -6.144   6.774   1.139  1.00  0.00     0.072  C
HETATM   61 O61  LIG A   1      -7.317   7.540   1.123  1.00  0.00    -0.394  O
HETATM   62 N62  LIG A   1      -6.887   3.656   3.227  1.00  0.00    -0.342  N
HETATM   63 C63  LIG A   1      -7.874   2.580   3.394  1.00  0.00     0.108  C
HETATM   64 C64  LIG A   1      -8.401   2.121   2.055  1.00  0.00     0.243  C
HETATM   65 O65  LIG A   1      -9.581   2.403   1.708  1.00  0.00    -0.273  O
HETATM   66 C66  LIG A   1      -8.999   3.002   4.368  1.00  0.00    -0.024  C
HETATM   67 C67  LIG A   1      -8.485   3.331   5.787  1.00  0.00    -0.050  C
HETATM   68 C68  LIG A   1      -8.660   2.186   6.803  1.00  0.00    -0.041  C
HETATM   69 C69  LIG A   1      -7.717   0.997   6.567  1.00  0.00    -0.008  C
HETATM   70 N70  LIG A   1      -8.272   0.079   5.576  1.00  0.00    -0.330  N
HETATM   71 N71  LIG A   1      -7.545   1.379   1.171  1.00  0.00    -0.342  N
HETATM   72 C72  LIG A   1      -7.905   1.046  -0.210  1.00  0.00     0.110  C
HETATM   73 C73  LIG A   1      -7.808  -0.450  -0.403  1.00  0.00     0.243  C
HETATM   74 O74  LIG A   1      -8.844  -1.088  -0.734  1.00  0.00    -0.273  O
HETATM   75 C75  LIG A   1      -7.000   1.807  -1.220  1.00  0.00    -0.015  C
HETATM   76 C76  LIG A   1      -7.421   1.520  -2.674  1.00  0.00    -0.060  C
HETATM   77 C77  LIG A   1      -6.931   3.333  -0.954  1.00  0.00    -0.051  C
HETATM   78 C78  LIG A   1      -8.249   4.078  -1.181  1.00  0.00    -0.065  C
HETATM   79 N79  LIG A   1      -6.558  -1.146  -0.237  1.00  0.00    -0.340  N
HETATM   80 C80  LIG A   1      -6.358  -2.503  -0.754  1.00  0.00     0.131  C
HETATM   81 C81  LIG A   1      -5.377  -3.268   0.107  1.00  0.00     0.245  C
HETATM   82 O82  LIG A   1      -5.822  -4.147   0.895  1.00  0.00    -0.273  O
HETATM   83 C83  LIG A   1      -5.918  -2.443  -2.225  1.00  0.00     0.072  C
HETATM   84 O84  LIG A   1      -5.757  -3.732  -2.748  1.00  0.00    -0.394  O
HETATM   85 N85  LIG A   1      -3.964  -3.015   0.052  1.00  0.00    -0.345  N
HETATM   86 C86  LIG A   1      -3.014  -3.919   0.701  1.00  0.00     0.097  C
HETATM   87 C87  LIG A   1      -1.601  -3.441   0.532  1.00  0.00     0.240  C
HETATM   88 O88  LIG A   1      -1.169  -2.529   1.285  1.00  0.00    -0.273  O
HETATM   89 N89  LIG A   1      -0.743  -4.020  -0.463  1.00  0.00    -0.342  N
HETATM   90 C90  LIG A   1       0.672  -3.648  -0.594  1.00  0.00     0.112  C
HETATM   91 C91  LIG A   1       1.091  -3.639  -2.042  1.00  0.00     0.243  C
HETATM   92 O92  LIG A   1       0.669  -4.531  -2.826  1.00  0.00    -0.273  O
HETATM   93 C93  LIG A   1       1.560  -4.632   0.186  1.00  0.00     0.002  C
HETATM   94 C94  LIG A   1       1.366  -4.498   1.673  1.00  0.00    -0.045  C
HETATM   95 C95  LIG A   1       0.502  -5.366   2.362  1.00  0.00    -0.059  C
HETATM   96 C96  LIG A   1       2.027  -3.481   2.380  1.00  0.00    -0.059  C
HETATM   97 C97  LIG A   1       0.322  -5.230   3.742  1.00  0.00    -0.062  C
HETATM   98 C98  LIG A   1       1.859  -3.361   3.761  1.00  0.00    -0.062  C
HETATM   99 C99  LIG A   1       1.005  -4.232   4.442  1.00  0.00    -0.062  C
HETATM  100 N100 LIG A   1       2.062  -2.683  -2.494  1.00  0.00    -0.340  N
HETATM  101 C101 LIG A   1       2.667  -2.743  -3.832  1.00  0.00     0.134  C
HETATM  102 C102 LIG A   1       3.987  -2.004  -3.865  1.00  0.00     0.245  C
HETATM  103 O103 LIG A   1       4.988  -2.574  -4.379  1.00  0.00    -0.273  O
HETATM  104 C104 LIG A   1       1.682  -2.270  -4.934  1.00  0.00     0.080  C
HETATM  105 O105 LIG A   1       2.306  -2.246  -6.194  1.00  0.00    -0.391  O
HETATM  106 C106 LIG A   1       1.001  -0.927  -4.637  1.00  0.00    -0.036  C
HETATM  107 N107 LIG A   1       4.115  -0.667  -3.351  1.00  0.00    -0.342  N
HETATM  108 C108 LIG A   1       5.406   0.027  -3.327  1.00  0.00     0.108  C
HETATM  109 C109 LIG A   1       6.266  -0.559  -2.237  1.00  0.00     0.243  C
HETATM  110 O110 LIG A   1       7.406  -1.012  -2.528  1.00  0.00    -0.273  O
HETATM  111 C111 LIG A   1       5.195   1.544  -3.121  1.00  0.00    -0.021  C
HETATM  112 C112 LIG A   1       6.504   2.372  -3.086  1.00  0.00    -0.045  C
HETATM  113 C113 LIG A   1       7.220   2.373  -4.445  1.00  0.00    -0.063  C
HETATM  114 C114 LIG A   1       6.204   3.813  -2.656  1.00  0.00    -0.063  C
HETATM  115 N115 LIG A   1       5.801  -0.586  -0.879  1.00  0.00    -0.343  N
HETATM  116 C116 LIG A   1       6.688  -0.933   0.238  1.00  0.00     0.105  C
HETATM  117 C117 LIG A   1       5.906  -1.357   1.457  1.00  0.00     0.242  C
HETATM  118 O118 LIG A   1       4.755  -0.888   1.671  1.00  0.00    -0.273  O
HETATM  119 C119 LIG A   1       7.589   0.255   0.576  1.00  0.00    -0.036  C
HETATM  120 N120 LIG A   1       6.507  -2.243   2.413  1.00  0.00    -0.343  N
HETATM  121 C121 LIG A   1       5.804  -2.689   3.622  1.00  0.00     0.108  C
HETATM  122 C122 LIG A   1       5.809  -1.615   4.684  1.00  0.00     0.243  C
HETATM  123 O123 LIG A   1       5.029  -1.733   5.668  1.00  0.00    -0.273  O
HETATM  124 C124 LIG A   1       6.430  -3.985   4.179  1.00  0.00    -0.021  C
HETATM  125 C125 LIG A   1       6.437  -5.165   3.176  1.00  0.00    -0.045  C
HETATM  126 C126 LIG A   1       5.020  -5.567   2.738  1.00  0.00    -0.063  C
HETATM  127 C127 LIG A   1       7.152  -6.371   3.799  1.00  0.00    -0.063  C
HETATM  128 N128 LIG A   1       6.693  -0.486   4.604  1.00  0.00    -0.342  N
HETATM  129 C129 LIG A   1       6.464   0.756   5.355  1.00  0.00     0.110  C
HETATM  130 C130 LIG A   1       6.514   1.942   4.418  1.00  0.00     0.243  C
HETATM  131 O131 LIG A   1       7.351   1.955   3.476  1.00  0.00    -0.273  O
HETATM  132 C132 LIG A   1       7.459   0.871   6.541  1.00  0.00    -0.018  C
HETATM  133 C133 LIG A   1       8.929   0.942   6.097  1.00  0.00    -0.060  C
HETATM  134 C134 LIG A   1       7.123   2.065   7.447  1.00  0.00    -0.060  C
HETATM  135 N135 LIG A   1       5.622   3.055   4.615  1.00  0.00    -0.343  N
HETATM  136 C136 LIG A   1       5.287   4.062   3.596  1.00  0.00     0.108  C
HETATM  137 C137 LIG A   1       4.502   3.429   2.476  1.00  0.00     0.243  C
HETATM  138 O138 LIG A   1       4.946   2.392   1.914  1.00  0.00    -0.273  O
HETATM  139 C139 LIG A   1       6.544   4.810   3.094  1.00  0.00    -0.024  C
HETATM  140 C140 LIG A   1       6.219   6.111   2.329  1.00  0.00    -0.050  C
HETATM  141 C141 LIG A   1       6.116   5.891   0.812  1.00  0.00    -0.041  C
HETATM  142 C142 LIG A   1       5.759   7.193   0.091  1.00  0.00    -0.008  C
HETATM  143 N143 LIG A   1       5.643   6.958  -1.345  1.00  0.00    -0.330  N
HETATM  144 N144 LIG A   1       3.254   4.004   2.047  1.00  0.00    -0.342  N
HETATM  145 C145 LIG A   1       2.307   3.314   1.162  1.00  0.00     0.116  C
HETATM  146 C146 LIG A   1       1.972   1.961   1.743  1.00  0.00     0.243  C
HETATM  147 O147 LIG A   1       2.273   0.901   1.128  1.00  0.00    -0.273  O
HETATM  148 C148 LIG A   1       2.853   3.250  -0.284  1.00  0.00     0.056  C
HETATM  149 C149 LIG A   1       2.772   4.571  -1.002  1.00  0.00     0.220  C
HETATM  150 O150 LIG A   1       2.788   5.655  -0.360  1.00  0.00    -0.275  O
HETATM  151 N151 LIG A   1       2.732   4.602  -2.428  1.00  0.00    -0.370  N
HETATM  152 N152 LIG A   1       1.365   1.893   3.042  1.00  0.00    -0.343  N
HETATM  153 C153 LIG A   1       1.453   0.686   3.868  1.00  0.00     0.105  C
HETATM  154 C154 LIG A   1       0.451   0.701   4.999  1.00  0.00     0.243  C
HETATM  155 O155 LIG A   1      -0.048   1.786   5.405  1.00  0.00    -0.273  O
HETATM  156 C156 LIG A   1       2.862   0.571   4.444  1.00  0.00    -0.036  C
HETATM  157 N157 LIG A   1       0.146  -0.525   5.678  1.00  0.00    -0.340  N
HETATM  158 C158 LIG A   1      -0.480  -0.559   7.004  1.00  0.00     0.131  C
HETATM  159 C159 LIG A   1       0.434   0.070   8.025  1.00  0.00     0.245  C
HETATM  160 O160 LIG A   1      -0.050   0.850   8.889  1.00  0.00    -0.273  O
HETATM  161 C161 LIG A   1      -0.796  -2.006   7.408  1.00  0.00     0.072  C
HETATM  162 O162 LIG A   1      -1.539  -2.020   8.596  1.00  0.00    -0.394  O
HETATM  163 N163 LIG A   1       1.836  -0.247   8.041  1.00  0.00    -0.339  N
HETATM  164 C164 LIG A   1       2.758   0.315   9.035  1.00  0.00     0.153  C
HETATM  165 C165 LIG A   1       2.883   1.798   8.816  1.00  0.00     0.328  C
HETATM  166 O166 LIG A   1       2.714   2.595   9.778  1.00  0.00    -0.250  O
HETATM  167 C167 LIG A   1       4.140  -0.373   8.944  1.00  0.00     0.082  C
HETATM  168 O168 LIG A   1       3.972  -1.764   9.051  1.00  0.00    -0.391  O
HETATM  169 C169 LIG A   1       5.088   0.101  10.053  1.00  0.00    -0.036  C
HETATM  170 O170 LIG A   1       3.200   2.293   7.555  1.00  0.00    -0.480  O
HETATM  171 H171 LIG A   1       2.116  -4.851  -6.898  1.00  0.00     0.119  H
HETATM  172 H172 LIG A   1       0.624  -5.202  -6.248  1.00  0.00     0.119  H
HETATM  173 H173 LIG A   1       0.485  -3.439  -7.841  1.00  0.00     0.057  H
HETATM  174 H174 LIG A   1       0.712  -4.063 -10.292  1.00  0.00     0.032  H
HETATM  175 H175 LIG A   1       3.387  -4.257  -8.774  1.00  0.00     0.023  H
HETATM  176 H176 LIG A   1       3.077  -3.580 -10.416  1.00  0.00     0.023  H
HETATM  177 H177 LIG A   1       2.435  -2.735  -8.982  1.00  0.00     0.023  H
HETATM  178 H178 LIG A   1       2.307  -6.512  -9.256  1.00  0.00     0.027  H
HETATM  179 H179 LIG A   1       0.665  -6.586  -9.974  1.00  0.00     0.027  H
HETATM  180 H180 LIG A   1       3.235  -5.695 -11.397  1.00  0.00     0.023  H
HETATM  181 H181 LIG A   1       2.240  -7.158 -11.697  1.00  0.00     0.023  H
HETATM  182 H182 LIG A   1       1.569  -5.534 -12.096  1.00  0.00     0.023  H
HETATM  183 H183 LIG A   1      -0.538  -7.017  -7.875  1.00  0.00     0.164  H
HETATM  184 H184 LIG A   1      -3.174  -6.459  -8.999  1.00  0.00     0.066  H
HETATM  185 H185 LIG A   1      -2.235  -8.750  -8.628  1.00  0.00     0.059  H
HETATM  186 H186 LIG A   1      -2.353  -8.534  -6.850  1.00  0.00     0.059  H
HETATM  187 H187 LIG A   1      -4.531  -8.537  -6.998  1.00  0.00     0.210  H
HETATM  188 H188 LIG A   1      -1.760  -6.191  -5.526  1.00  0.00     0.164  H
HETATM  189 H189 LIG A   1      -4.379  -4.953  -4.641  1.00  0.00     0.063  H
HETATM  190 H190 LIG A   1      -1.749  -5.539  -3.166  1.00  0.00     0.030  H
HETATM  191 H191 LIG A   1      -3.192  -4.802  -2.404  1.00  0.00     0.030  H
HETATM  192 H192 LIG A   1      -3.293  -7.561  -3.811  1.00  0.00     0.030  H
HETATM  193 H193 LIG A   1      -2.703  -7.002  -0.839  1.00  0.00     0.023  H
HETATM  194 H194 LIG A   1      -2.989  -8.615  -1.596  1.00  0.00     0.023  H
HETATM  195 H195 LIG A   1      -1.541  -7.657  -2.056  1.00  0.00     0.023  H
HETATM  196 H196 LIG A   1      -5.263  -7.910  -2.304  1.00  0.00     0.023  H
HETATM  197 H197 LIG A   1      -5.074  -6.237  -1.657  1.00  0.00     0.023  H
HETATM  198 H198 LIG A   1      -5.508  -6.512  -3.392  1.00  0.00     0.023  H
HETATM  199 H199 LIG A   1      -4.392  -3.005  -6.103  1.00  0.00     0.164  H
HETATM  200 H200 LIG A   1      -1.785  -1.586  -6.374  1.00  0.00     0.063  H
HETATM  201 H201 LIG A   1      -3.307  -1.912  -8.310  1.00  0.00     0.026  H
HETATM  202 H202 LIG A   1      -4.576  -0.917  -7.500  1.00  0.00     0.026  H
HETATM  203 H203 LIG A   1      -3.007  -0.166  -7.995  1.00  0.00     0.026  H
HETATM  204 H204 LIG A   1      -1.569   0.913  -6.075  1.00  0.00     0.164  H
HETATM  205 H205 LIG A   1      -1.752   2.793  -4.712  1.00  0.00     0.064  H
HETATM  206 H206 LIG A   1      -3.990   3.903  -4.989  1.00  0.00     0.033  H
HETATM  207 H207 LIG A   1      -2.110   4.117  -6.613  1.00  0.00     0.023  H
HETATM  208 H208 LIG A   1      -3.699   4.225  -7.422  1.00  0.00     0.023  H
HETATM  209 H209 LIG A   1      -2.739   2.700  -7.539  1.00  0.00     0.023  H
HETATM  210 H210 LIG A   1      -4.788   1.517  -6.787  1.00  0.00     0.027  H
HETATM  211 H211 LIG A   1      -5.324   1.615  -5.088  1.00  0.00     0.027  H
HETATM  212 H212 LIG A   1      -7.064   2.516  -6.499  1.00  0.00     0.023  H
HETATM  213 H213 LIG A   1      -5.936   3.677  -7.279  1.00  0.00     0.023  H
HETATM  214 H214 LIG A   1      -6.363   3.860  -5.526  1.00  0.00     0.023  H
HETATM  215 H215 LIG A   1      -3.239  -0.084  -1.521  1.00  0.00     0.063  H
HETATM  216 H216 LIG A   1      -1.095  -0.965  -1.310  1.00  0.00     0.029  H
HETATM  217 H217 LIG A   1      -1.102  -0.155   0.308  1.00  0.00     0.029  H
HETATM  218 H218 LIG A   1       0.129   1.678  -0.470  1.00  0.00     0.029  H
HETATM  219 H219 LIG A   1       0.829   0.394  -1.553  1.00  0.00     0.029  H
HETATM  220 H220 LIG A   1      -0.419   2.763  -2.436  1.00  0.00     0.049  H
HETATM  221 H221 LIG A   1      -0.350   1.234  -3.413  1.00  0.00     0.049  H
HETATM  222 H222 LIG A   1      -3.518  -0.215   1.145  1.00  0.00     0.164  H
HETATM  223 H223 LIG A   1      -4.642   2.276   2.080  1.00  0.00     0.063  H
HETATM  224 H224 LIG A   1      -5.122  -0.096   2.977  1.00  0.00     0.030  H
HETATM  225 H225 LIG A   1      -5.065   1.266   4.118  1.00  0.00     0.030  H
HETATM  226 H226 LIG A   1      -2.759   0.617   4.863  1.00  0.00     0.030  H
HETATM  227 H227 LIG A   1      -4.766  -0.147   6.087  1.00  0.00     0.023  H
HETATM  228 H228 LIG A   1      -4.892  -1.604   5.025  1.00  0.00     0.023  H
HETATM  229 H229 LIG A   1      -3.485  -1.396   6.135  1.00  0.00     0.023  H
HETATM  230 H230 LIG A   1      -1.870  -0.549   2.904  1.00  0.00     0.023  H
HETATM  231 H231 LIG A   1      -1.939  -1.712   4.260  1.00  0.00     0.023  H
HETATM  232 H232 LIG A   1      -3.199  -1.786   2.978  1.00  0.00     0.023  H
HETATM  233 H233 LIG A   1      -3.610   3.179   4.633  1.00  0.00     0.164  H
HETATM  234 H234 LIG A   1      -2.062   5.125   4.706  1.00  0.00     0.063  H
HETATM  235 H235 LIG A   1      -1.311   6.185   2.579  1.00  0.00     0.026  H
HETATM  236 H236 LIG A   1      -0.589   4.564   2.824  1.00  0.00     0.026  H
HETATM  237 H237 LIG A   1      -1.943   4.784   1.639  1.00  0.00     0.026  H
HETATM  238 H238 LIG A   1      -4.452   4.651   1.791  1.00  0.00     0.164  H
HETATM  239 H239 LIG A   1      -6.219   6.646   3.291  1.00  0.00     0.066  H
HETATM  240 H240 LIG A   1      -6.116   6.093   0.259  1.00  0.00     0.059  H
HETATM  241 H241 LIG A   1      -5.266   7.455   1.081  1.00  0.00     0.059  H
HETATM  242 H242 LIG A   1      -7.327   8.010   0.249  1.00  0.00     0.210  H
HETATM  243 H243 LIG A   1      -5.972   3.532   3.713  1.00  0.00     0.164  H
HETATM  244 H244 LIG A   1      -7.357   1.708   3.838  1.00  0.00     0.063  H
HETATM  245 H245 LIG A   1      -9.769   2.201   4.420  1.00  0.00     0.029  H
HETATM  246 H246 LIG A   1      -9.509   3.901   3.961  1.00  0.00     0.029  H
HETATM  247 H247 LIG A   1      -7.425   3.665   5.773  1.00  0.00     0.027  H
HETATM  248 H248 LIG A   1      -9.072   4.195   6.167  1.00  0.00     0.027  H
HETATM  249 H249 LIG A   1      -8.436   2.600   7.810  1.00  0.00     0.028  H
HETATM  250 H250 LIG A   1      -9.719   1.848   6.826  1.00  0.00     0.028  H
HETATM  251 H251 LIG A   1      -6.721   1.360   6.233  1.00  0.00     0.043  H
HETATM  252 H252 LIG A   1      -7.570   0.452   7.527  1.00  0.00     0.043  H
HETATM  253 H253 LIG A   1      -9.089  -0.413   6.004  1.00  0.00     0.118  H
HETATM  254 H254 LIG A   1      -7.551  -0.654   5.382  1.00  0.00     0.118  H
HETATM  255 H255 LIG A   1      -6.591   1.127   1.505  1.00  0.00     0.164  H
HETATM  256 H256 LIG A   1      -8.960   1.339  -0.404  1.00  0.00     0.064  H
HETATM  257 H257 LIG A   1      -5.962   1.430  -1.097  1.00  0.00     0.033  H
HETATM  258 H258 LIG A   1      -8.516   1.649  -2.804  1.00  0.00     0.023  H
HETATM  259 H259 LIG A   1      -7.153   0.481  -2.954  1.00  0.00     0.023  H
HETATM  260 H260 LIG A   1      -6.903   2.205  -3.375  1.00  0.00     0.023  H
HETATM  261 H261 LIG A   1      -6.162   3.781  -1.621  1.00  0.00     0.027  H
HETATM  262 H262 LIG A   1      -6.581   3.517   0.083  1.00  0.00     0.027  H
HETATM  263 H263 LIG A   1      -8.111   5.152  -0.938  1.00  0.00     0.023  H
HETATM  264 H264 LIG A   1      -8.565   4.007  -2.242  1.00  0.00     0.023  H
HETATM  265 H265 LIG A   1      -9.052   3.680  -0.531  1.00  0.00     0.023  H
HETATM  266 H266 LIG A   1      -5.719  -0.609   0.077  1.00  0.00     0.164  H
HETATM  267 H267 LIG A   1      -7.325  -3.053  -0.720  1.00  0.00     0.066  H
HETATM  268 H268 LIG A   1      -4.960  -1.893  -2.322  1.00  0.00     0.059  H
HETATM  269 H269 LIG A   1      -6.676  -1.887  -2.822  1.00  0.00     0.059  H
HETATM  270 H270 LIG A   1      -6.669  -4.091  -2.908  1.00  0.00     0.210  H
HETATM  271 H271 LIG A   1      -3.610  -2.197  -0.491  1.00  0.00     0.164  H
HETATM  272 H272 LIG A   1      -3.124  -4.936   0.273  1.00  0.00     0.059  H
HETATM  273 H273 LIG A   1      -3.244  -3.982   1.787  1.00  0.00     0.059  H
HETATM  274 H274 LIG A   1      -1.082  -4.870  -0.965  1.00  0.00     0.164  H
HETATM  275 H275 LIG A   1       0.828  -2.621  -0.193  1.00  0.00     0.064  H
HETATM  276 H276 LIG A   1       1.344  -5.674  -0.140  1.00  0.00     0.034  H
HETATM  277 H277 LIG A   1       2.631  -4.437  -0.050  1.00  0.00     0.034  H
HETATM  278 H278 LIG A   1      -0.033  -6.143   1.830  1.00  0.00     0.063  H
HETATM  279 H279 LIG A   1       2.680  -2.791   1.861  1.00  0.00     0.063  H
HETATM  280 H280 LIG A   1      -0.345  -5.900   4.269  1.00  0.00     0.062  H
HETATM  281 H281 LIG A   1       2.391  -2.592   4.304  1.00  0.00     0.062  H
HETATM  282 H282 LIG A   1       0.871  -4.133   5.511  1.00  0.00     0.062  H
HETATM  283 H283 LIG A   1       2.410  -1.985  -1.799  1.00  0.00     0.164  H
HETATM  284 H284 LIG A   1       2.901  -3.811  -4.048  1.00  0.00     0.066  H
HETATM  285 H285 LIG A   1       0.869  -3.024  -4.993  1.00  0.00     0.062  H
HETATM  286 H286 LIG A   1       2.902  -1.454  -6.229  1.00  0.00     0.211  H
HETATM  287 H287 LIG A   1       0.443  -0.985  -3.680  1.00  0.00     0.026  H
HETATM  288 H288 LIG A   1       0.276  -0.696  -5.444  1.00  0.00     0.026  H
HETATM  289 H289 LIG A   1       1.736  -0.099  -4.596  1.00  0.00     0.026  H
HETATM  290 H290 LIG A   1       3.284  -0.201  -2.923  1.00  0.00     0.164  H
HETATM  291 H291 LIG A   1       5.896  -0.123  -4.313  1.00  0.00     0.063  H
HETATM  292 H292 LIG A   1       4.645   1.696  -2.169  1.00  0.00     0.030  H
HETATM  293 H293 LIG A   1       4.540   1.928  -3.935  1.00  0.00     0.030  H
HETATM  294 H294 LIG A   1       7.195   1.943  -2.327  1.00  0.00     0.030  H
HETATM  295 H295 LIG A   1       8.102   3.048  -4.415  1.00  0.00     0.023  H
HETATM  296 H296 LIG A   1       7.593   1.358  -4.692  1.00  0.00     0.023  H
HETATM  297 H297 LIG A   1       6.535   2.717  -5.249  1.00  0.00     0.023  H
HETATM  298 H298 LIG A   1       7.144   4.403  -2.604  1.00  0.00     0.023  H
HETATM  299 H299 LIG A   1       5.744   3.825  -1.646  1.00  0.00     0.023  H
HETATM  300 H300 LIG A   1       5.512   4.302  -3.374  1.00  0.00     0.023  H
HETATM  301 H301 LIG A   1       4.844  -0.214  -0.683  1.00  0.00     0.164  H
HETATM  302 H302 LIG A   1       7.329  -1.790  -0.064  1.00  0.00     0.063  H
HETATM  303 H303 LIG A   1       8.235   0.502  -0.292  1.00  0.00     0.026  H
HETATM  304 H304 LIG A   1       8.245   0.012   1.439  1.00  0.00     0.026  H
HETATM  305 H305 LIG A   1       6.977   1.147   0.822  1.00  0.00     0.026  H
HETATM  306 H306 LIG A   1       7.508  -2.512   2.276  1.00  0.00     0.164  H
HETATM  307 H307 LIG A   1       4.745  -2.894   3.368  1.00  0.00     0.063  H
HETATM  308 H308 LIG A   1       7.477  -3.766   4.488  1.00  0.00     0.030  H
HETATM  309 H309 LIG A   1       5.873  -4.293   5.093  1.00  0.00     0.030  H
HETATM  310 H310 LIG A   1       7.010  -4.874   2.269  1.00  0.00     0.030  H
HETATM  311 H311 LIG A   1       4.585  -4.788   2.079  1.00  0.00     0.023  H
HETATM  312 H312 LIG A   1       4.360  -5.714   3.619  1.00  0.00     0.023  H
HETATM  313 H313 LIG A   1       5.046  -6.509   2.150  1.00  0.00     0.023  H
HETATM  314 H314 LIG A   1       6.610  -6.724   4.703  1.00  0.00     0.023  H
HETATM  315 H315 LIG A   1       8.190  -6.096   4.087  1.00  0.00     0.023  H
HETATM  316 H316 LIG A   1       7.211  -7.205   3.067  1.00  0.00     0.023  H
HETATM  317 H317 LIG A   1       7.533  -0.551   3.986  1.00  0.00     0.164  H
HETATM  318 H318 LIG A   1       5.440   0.727   5.784  1.00  0.00     0.063  H
HETATM  319 H319 LIG A   1       7.342  -0.048   7.158  1.00  0.00     0.032  H
HETATM  320 H320 LIG A   1       9.592   0.975   6.988  1.00  0.00     0.023  H
HETATM  321 H321 LIG A   1       9.207   0.044   5.508  1.00  0.00     0.023  H
HETATM  322 H322 LIG A   1       9.119   1.851   5.488  1.00  0.00     0.023  H
HETATM  323 H323 LIG A   1       6.055   2.034   7.749  1.00  0.00     0.023  H
HETATM  324 H324 LIG A   1       7.742   2.029   8.369  1.00  0.00     0.023  H
HETATM  325 H325 LIG A   1       7.320   3.026   6.926  1.00  0.00     0.023  H
HETATM  326 H326 LIG A   1       5.090   3.097   5.513  1.00  0.00     0.164  H
HETATM  327 H327 LIG A   1       4.630   4.810   4.092  1.00  0.00     0.063  H
HETATM  328 H328 LIG A   1       7.152   5.082   3.984  1.00  0.00     0.029  H
HETATM  329 H329 LIG A   1       7.176   4.154   2.459  1.00  0.00     0.029  H
HETATM  330 H330 LIG A   1       5.281   6.568   2.713  1.00  0.00     0.027  H
HETATM  331 H331 LIG A   1       7.038   6.839   2.516  1.00  0.00     0.027  H
HETATM  332 H332 LIG A   1       5.341   5.133   0.586  1.00  0.00     0.028  H
HETATM  333 H333 LIG A   1       7.090   5.516   0.426  1.00  0.00     0.028  H
HETATM  334 H334 LIG A   1       4.787   7.572   0.476  1.00  0.00     0.043  H
HETATM  335 H335 LIG A   1       6.540   7.963   0.284  1.00  0.00     0.043  H
HETATM  336 H336 LIG A   1       5.293   7.839  -1.785  1.00  0.00     0.118  H
HETATM  337 H337 LIG A   1       6.603   6.797  -1.727  1.00  0.00     0.118  H
HETATM  338 H338 LIG A   1       2.955   4.916   2.460  1.00  0.00     0.164  H
HETATM  339 H339 LIG A   1       1.353   3.888   1.140  1.00  0.00     0.064  H
HETATM  340 H340 LIG A   1       3.906   2.910  -0.286  1.00  0.00     0.039  H
HETATM  341 H341 LIG A   1       2.272   2.513  -0.874  1.00  0.00     0.039  H
HETATM  342 H342 LIG A   1       2.706   5.515  -2.934  1.00  0.00     0.159  H
HETATM  343 H343 LIG A   1       2.738   3.717  -2.981  1.00  0.00     0.159  H
HETATM  344 H344 LIG A   1       1.108   2.799   3.494  1.00  0.00     0.164  H
HETATM  345 H345 LIG A   1       1.245  -0.207   3.237  1.00  0.00     0.063  H
HETATM  346 H346 LIG A   1       3.606   0.471   3.628  1.00  0.00     0.026  H
HETATM  347 H347 LIG A   1       3.108   1.476   5.037  1.00  0.00     0.026  H
HETATM  348 H348 LIG A   1       2.940  -0.321   5.096  1.00  0.00     0.026  H
HETATM  349 H349 LIG A   1       0.459  -1.419   5.241  1.00  0.00     0.164  H
HETATM  350 H350 LIG A   1      -1.436   0.008   6.959  1.00  0.00     0.066  H
HETATM  351 H351 LIG A   1      -1.383  -2.496   6.600  1.00  0.00     0.059  H
HETATM  352 H352 LIG A   1       0.149  -2.579   7.546  1.00  0.00     0.059  H
HETATM  353 H353 LIG A   1      -1.713  -2.975   8.801  1.00  0.00     0.210  H
HETATM  354 H354 LIG A   1       2.196  -0.926   7.332  1.00  0.00     0.164  H
HETATM  355 H355 LIG A   1       2.339   0.124  10.049  1.00  0.00     0.068  H
HETATM  356 H356 LIG A   1       4.595  -0.127   7.956  1.00  0.00     0.063  H
HETATM  357 H357 LIG A   1       4.785  -2.184   8.666  1.00  0.00     0.211  H
HETATM  358 H358 LIG A   1       6.067  -0.416   9.957  1.00  0.00     0.026  H
HETATM  359 H359 LIG A   1       4.660  -0.129  11.052  1.00  0.00     0.026  H
HETATM  360 H360 LIG A   1       5.270   1.193   9.980  1.00  0.00     0.026  H
HETATM  361 H361 LIG A   1       3.292   3.289   7.395  1.00  0.00     0.296  H
ENDROOT
TORSDOF 0
