MODEL 1
REMARK VINA RESULT:    -8.819      0.000      0.000
REMARK INTER + INTRA:          -8.819
REMARK INTER:                  -8.819
REMARK INTRA:                   0.000
REMARK UNBOUND:                 0.000
ROOT
HETATM    1 N1   LIG A   1      29.114   1.828  32.130  1.00  0.00    -0.320  N
HETATM    2 C2   LIG A   1      29.009   1.130  30.848  1.00  0.00     0.084  C
HETATM    3 C3   LIG A   1      28.385   2.040  29.815  1.00  0.00     0.237  C
HETATM    4 O4   LIG A   1      27.154   2.306  29.886  1.00  0.00    -0.273  O
HETATM    5 C5   LIG A   1      28.181  -0.164  30.985  1.00  0.00    -0.027  C
HETATM    6 C6   LIG A   1      28.907  -1.316  31.719  1.00  0.00    -0.045  C
HETATM    7 C7   LIG A   1      28.175  -2.641  31.460  1.00  0.00    -0.063  C
HETATM    8 C8   LIG A   1      29.007  -1.069  33.233  1.00  0.00    -0.063  C
HETATM    9 N9   LIG A   1      29.199   2.617  28.782  1.00  0.00    -0.343  N
HETATM   10 C10  LIG A   1      28.686   3.465  27.698  1.00  0.00     0.110  C
HETATM   11 C11  LIG A   1      28.136   4.756  28.272  1.00  0.00     0.243  C
HETATM   12 O12  LIG A   1      28.952   5.679  28.537  1.00  0.00    -0.273  O
HETATM   13 C13  LIG A   1      27.722   2.682  26.755  1.00  0.00    -0.015  C
HETATM   14 C14  LIG A   1      27.286   3.549  25.560  1.00  0.00    -0.060  C
HETATM   15 C15  LIG A   1      28.317   1.331  26.275  1.00  0.00    -0.051  C
HETATM   16 C16  LIG A   1      29.619   1.451  25.478  1.00  0.00    -0.065  C
HETATM   17 N17  LIG A   1      26.738   4.935  28.569  1.00  0.00    -0.340  N
HETATM   18 C18  LIG A   1      26.222   6.149  29.207  1.00  0.00     0.131  C
HETATM   19 C19  LIG A   1      26.036   5.911  30.684  1.00  0.00     0.245  C
HETATM   20 O20  LIG A   1      26.632   6.663  31.502  1.00  0.00    -0.273  O
HETATM   21 C21  LIG A   1      24.916   6.581  28.535  1.00  0.00     0.072  C
HETATM   22 O22  LIG A   1      24.468   7.789  29.085  1.00  0.00    -0.394  O
HETATM   23 N23  LIG A   1      25.193   4.847  31.163  1.00  0.00    -0.342  N
HETATM   24 C24  LIG A   1      24.931   4.633  32.592  1.00  0.00     0.116  C
HETATM   25 C25  LIG A   1      24.894   3.158  32.899  1.00  0.00     0.243  C
HETATM   26 O26  LIG A   1      25.840   2.644  33.555  1.00  0.00    -0.273  O
HETATM   27 C27  LIG A   1      23.613   5.311  33.012  1.00  0.00     0.056  C
HETATM   28 C28  LIG A   1      23.738   6.807  33.008  1.00  0.00     0.220  C
HETATM   29 O29  LIG A   1      24.379   7.381  33.928  1.00  0.00    -0.275  O
HETATM   30 N30  LIG A   1      23.156   7.583  31.962  1.00  0.00    -0.370  N
HETATM   31 N31  LIG A   1      23.797   2.339  32.463  1.00  0.00    -0.340  N
HETATM   32 C32  LIG A   1      23.588   0.977  32.972  1.00  0.00     0.134  C
HETATM   33 C33  LIG A   1      24.190  -0.035  32.030  1.00  0.00     0.245  C
HETATM   34 O34  LIG A   1      24.881  -0.977  32.504  1.00  0.00    -0.273  O
HETATM   35 C35  LIG A   1      22.089   0.696  33.214  1.00  0.00     0.080  C
HETATM   36 O36  LIG A   1      21.364   0.856  32.024  1.00  0.00    -0.391  O
HETATM   37 C37  LIG A   1      21.520   1.621  34.296  1.00  0.00    -0.036  C
HETATM   38 N38  LIG A   1      23.961   0.049  30.615  1.00  0.00    -0.342  N
HETATM   39 C39  LIG A   1      24.581  -0.877  29.659  1.00  0.00     0.108  C
HETATM   40 C40  LIG A   1      24.537  -0.302  28.263  1.00  0.00     0.243  C
HETATM   41 O41  LIG A   1      25.600  -0.239  27.591  1.00  0.00    -0.273  O
HETATM   42 C42  LIG A   1      23.881  -2.250  29.698  1.00  0.00    -0.024  C
HETATM   43 C43  LIG A   1      24.725  -3.337  29.015  1.00  0.00    -0.050  C
HETATM   44 C44  LIG A   1      23.978  -4.673  28.980  1.00  0.00    -0.041  C
HETATM   45 C45  LIG A   1      24.828  -5.770  28.338  1.00  0.00    -0.008  C
HETATM   46 N46  LIG A   1      24.041  -6.992  28.198  1.00  0.00    -0.330  N
HETATM   47 N47  LIG A   1      23.286   0.126  27.698  1.00  0.00    -0.343  N
HETATM   48 C48  LIG A   1      23.082   0.553  26.310  1.00  0.00     0.108  C
HETATM   49 C49  LIG A   1      23.152  -0.646  25.401  1.00  0.00     0.243  C
HETATM   50 O50  LIG A   1      24.271  -1.141  25.090  1.00  0.00    -0.273  O
HETATM   51 C51  LIG A   1      24.055   1.682  25.901  1.00  0.00    -0.024  C
HETATM   52 C52  LIG A   1      23.547   2.497  24.695  1.00  0.00    -0.050  C
HETATM   53 C53  LIG A   1      22.490   3.557  25.062  1.00  0.00    -0.041  C
HETATM   54 C54  LIG A   1      23.098   4.781  25.758  1.00  0.00    -0.008  C
HETATM   55 N55  LIG A   1      22.069   5.790  25.986  1.00  0.00    -0.330  N
HETATM   56 N56  LIG A   1      21.941  -1.278  24.961  1.00  0.00    -0.342  N
HETATM   57 C57  LIG A   1      21.908  -2.679  24.529  1.00  0.00     0.112  C
HETATM   58 C58  LIG A   1      20.587  -2.991  23.864  1.00  0.00     0.243  C
HETATM   59 O59  LIG A   1      20.583  -3.480  22.701  1.00  0.00    -0.273  O
HETATM   60 C60  LIG A   1      22.149  -3.603  25.737  1.00  0.00     0.002  C
HETATM   61 C61  LIG A   1      22.293  -5.045  25.324  1.00  0.00    -0.045  C
HETATM   62 C62  LIG A   1      23.541  -5.537  24.908  1.00  0.00    -0.059  C
HETATM   63 C63  LIG A   1      21.179  -5.901  25.324  1.00  0.00    -0.059  C
HETATM   64 C64  LIG A   1      23.678  -6.876  24.528  1.00  0.00    -0.062  C
HETATM   65 C65  LIG A   1      21.320  -7.238  24.940  1.00  0.00    -0.062  C
HETATM   66 C66  LIG A   1      22.568  -7.726  24.548  1.00  0.00    -0.062  C
HETATM   67 N67  LIG A   1      19.349  -2.760  24.552  1.00  0.00    -0.345  N
HETATM   68 C68  LIG A   1      18.058  -3.092  23.951  1.00  0.00     0.097  C
HETATM   69 C69  LIG A   1      16.939  -2.435  24.705  1.00  0.00     0.240  C
HETATM   70 O70  LIG A   1      16.983  -1.191  24.905  1.00  0.00    -0.273  O
HETATM   71 N71  LIG A   1      15.815  -3.206  25.163  1.00  0.00    -0.341  N
HETATM   72 C72  LIG A   1      14.769  -2.645  26.022  1.00  0.00     0.134  C
HETATM   73 C73  LIG A   1      14.979  -3.145  27.432  1.00  0.00     0.245  C
HETATM   74 O74  LIG A   1      15.728  -2.474  28.189  1.00  0.00    -0.273  O
HETATM   75 C75  LIG A   1      13.374  -2.941  25.426  1.00  0.00     0.080  C
HETATM   76 O76  LIG A   1      13.310  -2.386  24.137  1.00  0.00    -0.391  O
HETATM   77 C77  LIG A   1      12.252  -2.341  26.286  1.00  0.00    -0.036  C
HETATM   78 N78  LIG A   1      14.412  -4.383  27.906  1.00  0.00    -0.343  N
HETATM   79 C79  LIG A   1      14.692  -4.943  29.237  1.00  0.00     0.105  C
HETATM   80 C80  LIG A   1      14.355  -3.960  30.341  1.00  0.00     0.242  C
HETATM   81 O81  LIG A   1      13.571  -3.000  30.106  1.00  0.00    -0.273  O
HETATM   82 C82  LIG A   1      16.154  -5.401  29.305  1.00  0.00    -0.036  C
HETATM   83 N83  LIG A   1      14.865  -4.151  31.669  1.00  0.00    -0.342  N
HETATM   84 C84  LIG A   1      15.026  -3.045  32.620  1.00  0.00     0.110  C
HETATM   85 C85  LIG A   1      16.487  -2.672  32.691  1.00  0.00     0.243  C
HETATM   86 O86  LIG A   1      16.829  -1.482  32.457  1.00  0.00    -0.273  O
HETATM   87 C87  LIG A   1      14.457  -3.435  34.016  1.00  0.00    -0.015  C
HETATM   88 C88  LIG A   1      14.651  -2.286  35.026  1.00  0.00    -0.060  C
HETATM   89 C89  LIG A   1      12.958  -3.814  33.900  1.00  0.00    -0.051  C
HETATM   90 C90  LIG A   1      12.387  -4.413  35.188  1.00  0.00    -0.065  C
HETATM   91 N91  LIG A   1      17.477  -3.645  33.059  1.00  0.00    -0.343  N
HETATM   92 C92  LIG A   1      18.888  -3.288  33.248  1.00  0.00     0.105  C
HETATM   93 C93  LIG A   1      19.576  -3.124  31.921  1.00  0.00     0.243  C
HETATM   94 O94  LIG A   1      20.371  -2.160  31.758  1.00  0.00    -0.273  O
HETATM   95 C95  LIG A   1      19.603  -4.361  34.072  1.00  0.00    -0.036  C
HETATM   96 N96  LIG A   1      19.392  -4.092  30.876  1.00  0.00    -0.340  N
HETATM   97 C97  LIG A   1      20.160  -4.059  29.627  1.00  0.00     0.131  C
HETATM   98 C98  LIG A   1      19.489  -3.136  28.642  1.00  0.00     0.245  C
HETATM   99 O99  LIG A   1      18.627  -3.591  27.841  1.00  0.00    -0.273  O
HETATM  100 C100 LIG A   1      20.307  -5.480  29.062  1.00  0.00     0.072  C
HETATM  101 O101 LIG A   1      21.026  -6.276  29.962  1.00  0.00    -0.394  O
HETATM  102 N102 LIG A   1      19.768  -1.727  28.664  1.00  0.00    -0.342  N
HETATM  103 C103 LIG A   1      18.735  -0.752  28.309  1.00  0.00     0.113  C
HETATM  104 C104 LIG A   1      19.352   0.540  27.833  1.00  0.00     0.243  C
HETATM  105 O105 LIG A   1      19.203   0.884  26.629  1.00  0.00    -0.273  O
HETATM  106 C106 LIG A   1      17.810  -0.528  29.521  1.00  0.00     0.021  C
HETATM  107 C107 LIG A   1      16.629   0.350  29.215  1.00  0.00     0.061  C
HETATM  108 N108 LIG A   1      16.139   0.584  27.979  1.00  0.00    -0.242  N
HETATM  109 C109 LIG A   1      15.812   0.936  30.155  1.00  0.00     0.024  C
HETATM  110 C110 LIG A   1      15.042   1.336  28.200  1.00  0.00     0.092  C
HETATM  111 N111 LIG A   1      14.819   1.563  29.508  1.00  0.00    -0.351  N
HETATM  112 N112 LIG A   1      20.072   1.394  28.736  1.00  0.00    -0.341  N
HETATM  113 C113 LIG A   1      20.057   2.855  28.594  1.00  0.00     0.127  C
HETATM  114 C114 LIG A   1      21.375   3.450  29.022  1.00  0.00     0.326  C
HETATM  115 O115 LIG A   1      22.447   2.820  28.830  1.00  0.00    -0.250  O
HETATM  116 C116 LIG A   1      18.863   3.453  29.371  1.00  0.00    -0.020  C
HETATM  117 C117 LIG A   1      18.935   3.216  30.892  1.00  0.00    -0.033  C
HETATM  118 C118 LIG A   1      17.769   3.897  31.616  1.00  0.00     0.018  C
HETATM  119 N119 LIG A   1      17.989   3.898  33.062  1.00  0.00    -0.357  N
HETATM  120 C120 LIG A   1      17.900   2.721  33.880  1.00  0.00     0.185  C
HETATM  121 N121 LIG A   1      17.614   1.574  33.351  1.00  0.00    -0.270  N
HETATM  122 N122 LIG A   1      18.121   2.823  35.289  1.00  0.00    -0.370  N
HETATM  123 O123 LIG A   1      21.422   4.734  29.557  1.00  0.00    -0.480  O
ENDROOT
TORSDOF 0
                                                                                                                              
ENDMDL
MODEL 2
REMARK VINA RESULT:    -6.828      3.427      9.422
REMARK INTER + INTRA:          -6.828
REMARK INTER:                  -6.828
REMARK INTRA:                   0.000
REMARK UNBOUND:                 0.000
ROOT
HETATM    1 N1   LIG A   1      34.130  -1.299  27.663  1.00  0.00    -0.320  N
HETATM    2 C2   LIG A   1      33.602   0.019  28.018  1.00  0.00     0.084  C
HETATM    3 C3   LIG A   1      33.211   0.043  29.477  1.00  0.00     0.237  C
HETATM    4 O4   LIG A   1      32.182  -0.582  29.854  1.00  0.00    -0.273  O
HETATM    5 C5   LIG A   1      32.390   0.389  27.138  1.00  0.00    -0.027  C
HETATM    6 C6   LIG A   1      32.746   0.761  25.679  1.00  0.00    -0.045  C
HETATM    7 C7   LIG A   1      31.556   1.474  25.019  1.00  0.00    -0.063  C
HETATM    8 C8   LIG A   1      33.138  -0.468  24.845  1.00  0.00    -0.063  C
HETATM    9 N9   LIG A   1      34.026   0.748  30.427  1.00  0.00    -0.343  N
HETATM   10 C10  LIG A   1      33.709   0.883  31.854  1.00  0.00     0.110  C
HETATM   11 C11  LIG A   1      33.747  -0.478  32.521  1.00  0.00     0.243  C
HETATM   12 O12  LIG A   1      34.870  -0.934  32.867  1.00  0.00    -0.273  O
HETATM   13 C13  LIG A   1      32.405   1.708  32.083  1.00  0.00    -0.015  C
HETATM   14 C14  LIG A   1      32.150   1.941  33.584  1.00  0.00    -0.060  C
HETATM   15 C15  LIG A   1      32.399   3.050  31.304  1.00  0.00    -0.051  C
HETATM   16 C16  LIG A   1      33.532   4.012  31.673  1.00  0.00    -0.065  C
HETATM   17 N17  LIG A   1      32.564  -1.277  32.716  1.00  0.00    -0.340  N
HETATM   18 C18  LIG A   1      32.616  -2.629  33.278  1.00  0.00     0.131  C
HETATM   19 C19  LIG A   1      32.564  -3.646  32.166  1.00  0.00     0.245  C
HETATM   20 O20  LIG A   1      33.500  -4.486  32.066  1.00  0.00    -0.273  O
HETATM   21 C21  LIG A   1      31.474  -2.826  34.278  1.00  0.00     0.072  C
HETATM   22 O22  LIG A   1      31.574  -4.087  34.881  1.00  0.00    -0.394  O
HETATM   23 N23  LIG A   1      31.469  -3.669  31.232  1.00  0.00    -0.342  N
HETATM   24 C24  LIG A   1      31.350  -4.691  30.184  1.00  0.00     0.116  C
HETATM   25 C25  LIG A   1      30.826  -4.073  28.913  1.00  0.00     0.243  C
HETATM   26 O26  LIG A   1      31.604  -3.939  27.930  1.00  0.00    -0.273  O
HETATM   27 C27  LIG A   1      30.438  -5.842  30.647  1.00  0.00     0.056  C
HETATM   28 C28  LIG A   1      31.093  -6.667  31.718  1.00  0.00     0.220  C
HETATM   29 O29  LIG A   1      32.020  -7.463  31.411  1.00  0.00    -0.275  O
HETATM   30 N30  LIG A   1      30.691  -6.541  33.081  1.00  0.00    -0.370  N
HETATM   31 N31  LIG A   1      29.458  -3.647  28.807  1.00  0.00    -0.340  N
HETATM   32 C32  LIG A   1      28.844  -3.303  27.518  1.00  0.00     0.134  C
HETATM   33 C33  LIG A   1      28.902  -1.814  27.287  1.00  0.00     0.245  C
HETATM   34 O34  LIG A   1      29.265  -1.382  26.160  1.00  0.00    -0.273  O
HETATM   35 C35  LIG A   1      27.394  -3.827  27.432  1.00  0.00     0.080  C
HETATM   36 O36  LIG A   1      26.618  -3.286  28.468  1.00  0.00    -0.391  O
HETATM   37 C37  LIG A   1      27.354  -5.359  27.501  1.00  0.00    -0.036  C
HETATM   38 N38  LIG A   1      28.524  -0.893  28.323  1.00  0.00    -0.342  N
HETATM   39 C39  LIG A   1      28.629   0.562  28.161  1.00  0.00     0.108  C
HETATM   40 C40  LIG A   1      28.601   1.245  29.507  1.00  0.00     0.243  C
HETATM   41 O41  LIG A   1      29.510   2.067  29.798  1.00  0.00    -0.273  O
HETATM   42 C42  LIG A   1      27.493   1.094  27.265  1.00  0.00    -0.024  C
HETATM   43 C43  LIG A   1      27.783   2.516  26.764  1.00  0.00    -0.050  C
HETATM   44 C44  LIG A   1      26.607   3.065  25.951  1.00  0.00    -0.041  C
HETATM   45 C45  LIG A   1      26.905   4.466  25.416  1.00  0.00    -0.008  C
HETATM   46 N46  LIG A   1      25.719   5.013  24.764  1.00  0.00    -0.330  N
HETATM   47 N47  LIG A   1      27.523   0.990  30.425  1.00  0.00    -0.343  N
HETATM   48 C48  LIG A   1      27.296   1.700  31.687  1.00  0.00     0.108  C
HETATM   49 C49  LIG A   1      26.801   3.093  31.399  1.00  0.00     0.243  C
HETATM   50 O50  LIG A   1      27.611   3.990  31.034  1.00  0.00    -0.273  O
HETATM   51 C51  LIG A   1      28.544   1.677  32.599  1.00  0.00    -0.024  C
HETATM   52 C52  LIG A   1      28.202   1.923  34.083  1.00  0.00    -0.050  C
HETATM   53 C53  LIG A   1      27.661   0.677  34.811  1.00  0.00    -0.041  C
HETATM   54 C54  LIG A   1      28.761  -0.342  35.132  1.00  0.00    -0.008  C
HETATM   55 N55  LIG A   1      28.208  -1.447  35.909  1.00  0.00    -0.330  N
HETATM   56 N56  LIG A   1      25.394   3.375  31.453  1.00  0.00    -0.342  N
HETATM   57 C57  LIG A   1      24.798   4.497  30.722  1.00  0.00     0.112  C
HETATM   58 C58  LIG A   1      23.375   4.722  31.178  1.00  0.00     0.243  C
HETATM   59 O59  LIG A   1      23.033   5.865  31.588  1.00  0.00    -0.273  O
HETATM   60 C60  LIG A   1      24.856   4.222  29.208  1.00  0.00     0.002  C
HETATM   61 C61  LIG A   1      24.409   5.414  28.401  1.00  0.00    -0.045  C
HETATM   62 C62  LIG A   1      25.324   6.431  28.083  1.00  0.00    -0.059  C
HETATM   63 C63  LIG A   1      23.073   5.534  27.984  1.00  0.00    -0.059  C
HETATM   64 C64  LIG A   1      24.914   7.537  27.331  1.00  0.00    -0.062  C
HETATM   65 C65  LIG A   1      22.667   6.642  27.235  1.00  0.00    -0.062  C
HETATM   66 C66  LIG A   1      23.587   7.639  26.905  1.00  0.00    -0.062  C
HETATM   67 N67  LIG A   1      22.413   3.658  31.124  1.00  0.00    -0.345  N
HETATM   68 C68  LIG A   1      21.019   3.858  31.518  1.00  0.00     0.097  C
HETATM   69 C69  LIG A   1      20.329   2.539  31.709  1.00  0.00     0.240  C
HETATM   70 O70  LIG A   1      20.847   1.683  32.476  1.00  0.00    -0.273  O
HETATM   71 N71  LIG A   1      19.079   2.266  31.054  1.00  0.00    -0.341  N
HETATM   72 C72  LIG A   1      18.437   0.950  31.093  1.00  0.00     0.134  C
HETATM   73 C73  LIG A   1      18.646   0.269  29.761  1.00  0.00     0.245  C
HETATM   74 O74  LIG A   1      19.684  -0.427  29.612  1.00  0.00    -0.273  O
HETATM   75 C75  LIG A   1      16.960   1.089  31.529  1.00  0.00     0.080  C
HETATM   76 O76  LIG A   1      16.922   1.698  32.795  1.00  0.00    -0.391  O
HETATM   77 C77  LIG A   1      16.262  -0.276  31.610  1.00  0.00    -0.036  C
HETATM   78 N78  LIG A   1      17.742   0.445  28.652  1.00  0.00    -0.343  N
HETATM   79 C79  LIG A   1      17.983  -0.119  27.315  1.00  0.00     0.105  C
HETATM   80 C80  LIG A   1      18.182  -1.621  27.368  1.00  0.00     0.242  C
HETATM   81 O81  LIG A   1      17.773  -2.272  28.369  1.00  0.00    -0.273  O
HETATM   82 C82  LIG A   1      19.175   0.593  26.663  1.00  0.00    -0.036  C
HETATM   83 N83  LIG A   1      18.768  -2.320  26.259  1.00  0.00    -0.342  N
HETATM   84 C84  LIG A   1      19.448  -3.612  26.410  1.00  0.00     0.110  C
HETATM   85 C85  LIG A   1      20.940  -3.385  26.363  1.00  0.00     0.243  C
HETATM   86 O86  LIG A   1      21.652  -3.787  27.322  1.00  0.00    -0.273  O
HETATM   87 C87  LIG A   1      18.977  -4.610  25.313  1.00  0.00    -0.015  C
HETATM   88 C88  LIG A   1      19.712  -5.960  25.449  1.00  0.00    -0.060  C
HETATM   89 C89  LIG A   1      17.442  -4.813  25.392  1.00  0.00    -0.051  C
HETATM   90 C90  LIG A   1      16.878  -5.612  24.214  1.00  0.00    -0.065  C
HETATM   91 N91  LIG A   1      21.552  -2.756  25.227  1.00  0.00    -0.343  N
HETATM   92 C92  LIG A   1      23.008  -2.624  25.100  1.00  0.00     0.105  C
HETATM   93 C93  LIG A   1      23.517  -1.505  25.966  1.00  0.00     0.243  C
HETATM   94 O94  LIG A   1      24.576  -1.674  26.627  1.00  0.00    -0.273  O
HETATM   95 C95  LIG A   1      23.395  -2.367  23.642  1.00  0.00    -0.036  C
HETATM   96 N96  LIG A   1      22.852  -0.232  25.982  1.00  0.00    -0.340  N
HETATM   97 C97  LIG A   1      23.398   0.934  26.684  1.00  0.00     0.131  C
HETATM   98 C98  LIG A   1      22.976   0.898  28.131  1.00  0.00     0.245  C
HETATM   99 O99  LIG A   1      21.906   1.463  28.487  1.00  0.00    -0.273  O
HETATM  100 C100 LIG A   1      22.942   2.228  25.992  1.00  0.00     0.072  C
HETATM  101 O101 LIG A   1      23.443   2.268  24.685  1.00  0.00    -0.394  O
HETATM  102 N102 LIG A   1      23.745   0.159  29.092  1.00  0.00    -0.342  N
HETATM  103 C103 LIG A   1      23.095  -0.495  30.230  1.00  0.00     0.113  C
HETATM  104 C104 LIG A   1      24.064  -0.685  31.371  1.00  0.00     0.243  C
HETATM  105 O105 LIG A   1      23.883  -0.045  32.442  1.00  0.00    -0.273  O
HETATM  106 C106 LIG A   1      22.492  -1.837  29.768  1.00  0.00     0.021  C
HETATM  107 C107 LIG A   1      21.678  -2.521  30.830  1.00  0.00     0.061  C
HETATM  108 N108 LIG A   1      21.138  -1.908  31.905  1.00  0.00    -0.242  N
HETATM  109 C109 LIG A   1      21.267  -3.834  30.790  1.00  0.00     0.024  C
HETATM  110 C110 LIG A   1      20.429  -2.882  32.512  1.00  0.00     0.092  C
HETATM  111 N111 LIG A   1      20.488  -4.057  31.858  1.00  0.00    -0.351  N
HETATM  112 N112 LIG A   1      25.162  -1.605  31.265  1.00  0.00    -0.341  N
HETATM  113 C113 LIG A   1      25.657  -2.353  32.427  1.00  0.00     0.127  C
HETATM  114 C114 LIG A   1      27.146  -2.569  32.333  1.00  0.00     0.326  C
HETATM  115 O115 LIG A   1      27.881  -1.697  31.800  1.00  0.00    -0.250  O
HETATM  116 C116 LIG A   1      24.880  -3.681  32.574  1.00  0.00    -0.020  C
HETATM  117 C117 LIG A   1      25.072  -4.644  31.386  1.00  0.00    -0.033  C
HETATM  118 C118 LIG A   1      24.344  -5.971  31.624  1.00  0.00     0.018  C
HETATM  119 N119 LIG A   1      24.749  -6.967  30.631  1.00  0.00    -0.357  N
HETATM  120 C120 LIG A   1      24.356  -6.919  29.252  1.00  0.00     0.185  C
HETATM  121 N121 LIG A   1      23.604  -5.958  28.816  1.00  0.00    -0.270  N
HETATM  122 N122 LIG A   1      24.793  -7.945  28.357  1.00  0.00    -0.370  N
HETATM  123 O123 LIG A   1      27.728  -3.694  32.909  1.00  0.00    -0.480  O
ENDROOT
TORSDOF 0
                                                                                                                              
ENDMDL
