MODEL 1
REMARK VINA RESULT:    -8.782      0.000      0.000
REMARK INTER + INTRA:          -8.782
REMARK INTER:                  -8.782
REMARK INTRA:                   0.000
REMARK UNBOUND:                 0.000
ROOT
HETATM    1 N1   LIG A   1      29.130   1.885  32.077  1.00  0.00    -0.320  N
HETATM    2 C2   LIG A   1      29.021   1.190  30.793  1.00  0.00     0.084  C
HETATM    3 C3   LIG A   1      28.387   2.100  29.766  1.00  0.00     0.237  C
HETATM    4 O4   LIG A   1      27.156   2.362  29.845  1.00  0.00    -0.273  O
HETATM    5 C5   LIG A   1      28.198  -0.108  30.931  1.00  0.00    -0.027  C
HETATM    6 C6   LIG A   1      28.933  -1.259  31.658  1.00  0.00    -0.045  C
HETATM    7 C7   LIG A   1      28.204  -2.586  31.399  1.00  0.00    -0.063  C
HETATM    8 C8   LIG A   1      29.040  -1.016  33.171  1.00  0.00    -0.063  C
HETATM    9 N9   LIG A   1      29.193   2.684  28.731  1.00  0.00    -0.343  N
HETATM   10 C10  LIG A   1      28.671   3.533  27.653  1.00  0.00     0.110  C
HETATM   11 C11  LIG A   1      28.119   4.820  28.233  1.00  0.00     0.243  C
HETATM   12 O12  LIG A   1      28.933   5.746  28.497  1.00  0.00    -0.273  O
HETATM   13 C13  LIG A   1      27.704   2.749  26.713  1.00  0.00    -0.015  C
HETATM   14 C14  LIG A   1      27.258   3.618  25.522  1.00  0.00    -0.060  C
HETATM   15 C15  LIG A   1      28.302   1.403  26.225  1.00  0.00    -0.051  C
HETATM   16 C16  LIG A   1      29.599   1.529  25.421  1.00  0.00    -0.065  C
HETATM   17 N17  LIG A   1      26.722   4.993  28.539  1.00  0.00    -0.340  N
HETATM   18 C18  LIG A   1      26.205   6.203  29.183  1.00  0.00     0.131  C
HETATM   19 C19  LIG A   1      26.028   5.960  30.660  1.00  0.00     0.245  C
HETATM   20 O20  LIG A   1      26.627   6.712  31.477  1.00  0.00    -0.273  O
HETATM   21 C21  LIG A   1      24.893   6.632  28.520  1.00  0.00     0.072  C
HETATM   22 O22  LIG A   1      24.445   7.837  29.076  1.00  0.00    -0.394  O
HETATM   23 N23  LIG A   1      25.192   4.892  31.142  1.00  0.00    -0.342  N
HETATM   24 C24  LIG A   1      24.939   4.672  32.571  1.00  0.00     0.116  C
HETATM   25 C25  LIG A   1      24.910   3.196  32.874  1.00  0.00     0.243  C
HETATM   26 O26  LIG A   1      25.861   2.684  33.523  1.00  0.00    -0.273  O
HETATM   27 C27  LIG A   1      23.621   5.344  33.001  1.00  0.00     0.056  C
HETATM   28 C28  LIG A   1      23.740   6.840  33.001  1.00  0.00     0.220  C
HETATM   29 O29  LIG A   1      24.385   7.414  33.919  1.00  0.00    -0.275  O
HETATM   30 N30  LIG A   1      23.150   7.618  31.960  1.00  0.00    -0.370  N
HETATM   31 N31  LIG A   1      23.813   2.375  32.441  1.00  0.00    -0.340  N
HETATM   32 C32  LIG A   1      23.612   1.010  32.948  1.00  0.00     0.134  C
HETATM   33 C33  LIG A   1      24.212   0.003  31.999  1.00  0.00     0.245  C
HETATM   34 O34  LIG A   1      24.910  -0.938  32.466  1.00  0.00    -0.273  O
HETATM   35 C35  LIG A   1      22.116   0.722  33.197  1.00  0.00     0.080  C
HETATM   36 O36  LIG A   1      21.384   0.884  32.011  1.00  0.00    -0.391  O
HETATM   37 C37  LIG A   1      21.549   1.643  34.285  1.00  0.00    -0.036  C
HETATM   38 N38  LIG A   1      23.975   0.090  30.585  1.00  0.00    -0.342  N
HETATM   39 C39  LIG A   1      24.593  -0.830  29.624  1.00  0.00     0.108  C
HETATM   40 C40  LIG A   1      24.539  -0.251  28.230  1.00  0.00     0.243  C
HETATM   41 O41  LIG A   1      25.598  -0.182  27.551  1.00  0.00    -0.273  O
HETATM   42 C42  LIG A   1      23.899  -2.206  29.662  1.00  0.00    -0.024  C
HETATM   43 C43  LIG A   1      24.742  -3.287  28.971  1.00  0.00    -0.050  C
HETATM   44 C44  LIG A   1      24.000  -4.626  28.936  1.00  0.00    -0.041  C
HETATM   45 C45  LIG A   1      24.851  -5.718  28.286  1.00  0.00    -0.008  C
HETATM   46 N46  LIG A   1      24.068  -6.942  28.146  1.00  0.00    -0.330  N
HETATM   47 N47  LIG A   1      23.283   0.174  27.673  1.00  0.00    -0.343  N
HETATM   48 C48  LIG A   1      23.070   0.604  26.287  1.00  0.00     0.108  C
HETATM   49 C49  LIG A   1      23.140  -0.592  25.374  1.00  0.00     0.243  C
HETATM   50 O50  LIG A   1      24.258  -1.081  25.055  1.00  0.00    -0.273  O
HETATM   51 C51  LIG A   1      24.037   1.738  25.876  1.00  0.00    -0.024  C
HETATM   52 C52  LIG A   1      23.518   2.555  24.675  1.00  0.00    -0.050  C
HETATM   53 C53  LIG A   1      22.459   3.610  25.052  1.00  0.00    -0.041  C
HETATM   54 C54  LIG A   1      23.067   4.834  25.748  1.00  0.00    -0.008  C
HETATM   55 N55  LIG A   1      22.035   5.838  25.985  1.00  0.00    -0.330  N
HETATM   56 N56  LIG A   1      21.928  -1.227  24.939  1.00  0.00    -0.342  N
HETATM   57 C57  LIG A   1      21.897  -2.626  24.503  1.00  0.00     0.112  C
HETATM   58 C58  LIG A   1      20.574  -2.942  23.845  1.00  0.00     0.243  C
HETATM   59 O59  LIG A   1      20.565  -3.427  22.680  1.00  0.00    -0.273  O
HETATM   60 C60  LIG A   1      22.150  -3.553  25.707  1.00  0.00     0.002  C
HETATM   61 C61  LIG A   1      22.296  -4.993  25.289  1.00  0.00    -0.045  C
HETATM   62 C62  LIG A   1      23.543  -5.480  24.864  1.00  0.00    -0.059  C
HETATM   63 C63  LIG A   1      21.185  -5.854  25.292  1.00  0.00    -0.059  C
HETATM   64 C64  LIG A   1      23.683  -6.817  24.479  1.00  0.00    -0.062  C
HETATM   65 C65  LIG A   1      21.329  -7.189  24.904  1.00  0.00    -0.062  C
HETATM   66 C66  LIG A   1      22.577  -7.672  24.503  1.00  0.00    -0.062  C
HETATM   67 N67  LIG A   1      19.339  -2.717  24.541  1.00  0.00    -0.345  N
HETATM   68 C68  LIG A   1      18.047  -3.052  23.946  1.00  0.00     0.097  C
HETATM   69 C69  LIG A   1      16.929  -2.402  24.708  1.00  0.00     0.240  C
HETATM   70 O70  LIG A   1      16.969  -1.159  24.912  1.00  0.00    -0.273  O
HETATM   71 N71  LIG A   1      15.811  -3.179  25.170  1.00  0.00    -0.341  N
HETATM   72 C72  LIG A   1      14.768  -2.624  26.037  1.00  0.00     0.134  C
HETATM   73 C73  LIG A   1      14.987  -3.128  27.444  1.00  0.00     0.245  C
HETATM   74 O74  LIG A   1      15.738  -2.456  28.199  1.00  0.00    -0.273  O
HETATM   75 C75  LIG A   1      13.370  -2.924  25.448  1.00  0.00     0.080  C
HETATM   76 O76  LIG A   1      13.296  -2.364  24.160  1.00  0.00    -0.391  O
HETATM   77 C77  LIG A   1      12.251  -2.330  26.315  1.00  0.00    -0.036  C
HETATM   78 N78  LIG A   1      14.428  -4.369  27.917  1.00  0.00    -0.343  N
HETATM   79 C79  LIG A   1      14.717  -4.932  29.245  1.00  0.00     0.105  C
HETATM   80 C80  LIG A   1      14.383  -3.953  30.353  1.00  0.00     0.242  C
HETATM   81 O81  LIG A   1      13.594  -2.996  30.126  1.00  0.00    -0.273  O
HETATM   82 C82  LIG A   1      16.182  -5.385  29.303  1.00  0.00    -0.036  C
HETATM   83 N83  LIG A   1      14.901  -4.147  31.679  1.00  0.00    -0.342  N
HETATM   84 C84  LIG A   1      15.063  -3.043  32.632  1.00  0.00     0.110  C
HETATM   85 C85  LIG A   1      16.523  -2.665  32.696  1.00  0.00     0.243  C
HETATM   86 O86  LIG A   1      16.860  -1.473  32.463  1.00  0.00    -0.273  O
HETATM   87 C87  LIG A   1      14.504  -3.439  34.029  1.00  0.00    -0.015  C
HETATM   88 C88  LIG A   1      14.699  -2.293  35.043  1.00  0.00    -0.060  C
HETATM   89 C89  LIG A   1      13.006  -3.824  33.921  1.00  0.00    -0.051  C
HETATM   90 C90  LIG A   1      12.444  -4.429  35.210  1.00  0.00    -0.065  C
HETATM   91 N91  LIG A   1      17.519  -3.635  33.055  1.00  0.00    -0.343  N
HETATM   92 C92  LIG A   1      18.929  -3.274  33.238  1.00  0.00     0.105  C
HETATM   93 C93  LIG A   1      19.609  -3.103  31.907  1.00  0.00     0.243  C
HETATM   94 O94  LIG A   1      20.400  -2.136  31.742  1.00  0.00    -0.273  O
HETATM   95 C95  LIG A   1      19.653  -4.347  34.053  1.00  0.00    -0.036  C
HETATM   96 N96  LIG A   1      19.423  -4.068  30.860  1.00  0.00    -0.340  N
HETATM   97 C97  LIG A   1      20.184  -4.029  29.607  1.00  0.00     0.131  C
HETATM   98 C98  LIG A   1      19.504  -3.105  28.628  1.00  0.00     0.245  C
HETATM   99 O99  LIG A   1      18.639  -3.561  27.831  1.00  0.00    -0.273  O
HETATM  100 C100 LIG A   1      20.334  -5.448  29.037  1.00  0.00     0.072  C
HETATM  101 O101 LIG A   1      21.060  -6.244  29.930  1.00  0.00    -0.394  O
HETATM  102 N102 LIG A   1      19.778  -1.695  28.653  1.00  0.00    -0.342  N
HETATM  103 C103 LIG A   1      18.739  -0.724  28.306  1.00  0.00     0.113  C
HETATM  104 C104 LIG A   1      19.348   0.573  27.831  1.00  0.00     0.243  C
HETATM  105 O105 LIG A   1      19.191   0.920  26.629  1.00  0.00    -0.273  O
HETATM  106 C106 LIG A   1      17.820  -0.506  29.525  1.00  0.00     0.021  C
HETATM  107 C107 LIG A   1      16.634   0.368  29.228  1.00  0.00     0.061  C
HETATM  108 N108 LIG A   1      16.136   0.604  27.995  1.00  0.00    -0.242  N
HETATM  109 C109 LIG A   1      15.821   0.948  30.174  1.00  0.00     0.024  C
HETATM  110 C110 LIG A   1      15.037   1.351  28.225  1.00  0.00     0.092  C
HETATM  111 N111 LIG A   1      14.822   1.574  29.535  1.00  0.00    -0.351  N
HETATM  112 N112 LIG A   1      20.070   1.427  28.732  1.00  0.00    -0.341  N
HETATM  113 C113 LIG A   1      20.049   2.888  28.595  1.00  0.00     0.127  C
HETATM  114 C114 LIG A   1      21.367   3.486  29.018  1.00  0.00     0.326  C
HETATM  115 O115 LIG A   1      22.441   2.861  28.818  1.00  0.00    -0.250  O
HETATM  116 C116 LIG A   1      18.857   3.479  29.381  1.00  0.00    -0.020  C
HETATM  117 C117 LIG A   1      18.938   3.237  30.900  1.00  0.00    -0.033  C
HETATM  118 C118 LIG A   1      17.774   3.912  31.633  1.00  0.00     0.018  C
HETATM  119 N119 LIG A   1      18.003   3.909  33.078  1.00  0.00    -0.357  N
HETATM  120 C120 LIG A   1      17.922   2.730  33.893  1.00  0.00     0.185  C
HETATM  121 N121 LIG A   1      17.638   1.584  33.362  1.00  0.00    -0.270  N
HETATM  122 N122 LIG A   1      18.152   2.829  35.301  1.00  0.00    -0.370  N
HETATM  123 O123 LIG A   1      21.413   4.769  29.556  1.00  0.00    -0.480  O
ENDROOT
TORSDOF 0
                                                                                                                              
ENDMDL
