MODEL 1
REMARK VINA RESULT:    -8.779      0.000      0.000
REMARK INTER + INTRA:          -8.779
REMARK INTER:                  -8.779
REMARK INTRA:                   0.000
REMARK UNBOUND:                 0.000
ROOT
HETATM    1 N1   LIG A   1      29.116   1.878  32.080  1.00  0.00    -0.320  N
HETATM    2 C2   LIG A   1      29.009   1.184  30.796  1.00  0.00     0.084  C
HETATM    3 C3   LIG A   1      28.380   2.096  29.767  1.00  0.00     0.237  C
HETATM    4 O4   LIG A   1      27.149   2.358  29.843  1.00  0.00    -0.273  O
HETATM    5 C5   LIG A   1      28.184  -0.113  30.931  1.00  0.00    -0.027  C
HETATM    6 C6   LIG A   1      28.916  -1.265  31.659  1.00  0.00    -0.045  C
HETATM    7 C7   LIG A   1      28.186  -2.591  31.398  1.00  0.00    -0.063  C
HETATM    8 C8   LIG A   1      29.019  -1.023  33.173  1.00  0.00    -0.063  C
HETATM    9 N9   LIG A   1      29.189   2.678  28.734  1.00  0.00    -0.343  N
HETATM   10 C10  LIG A   1      28.672   3.529  27.655  1.00  0.00     0.110  C
HETATM   11 C11  LIG A   1      28.120   4.816  28.234  1.00  0.00     0.243  C
HETATM   12 O12  LIG A   1      28.935   5.741  28.500  1.00  0.00    -0.273  O
HETATM   13 C13  LIG A   1      27.707   2.746  26.712  1.00  0.00    -0.015  C
HETATM   14 C14  LIG A   1      27.265   3.616  25.520  1.00  0.00    -0.060  C
HETATM   15 C15  LIG A   1      28.304   1.399  26.226  1.00  0.00    -0.051  C
HETATM   16 C16  LIG A   1      29.603   1.524  25.425  1.00  0.00    -0.065  C
HETATM   17 N17  LIG A   1      26.722   4.991  28.536  1.00  0.00    -0.340  N
HETATM   18 C18  LIG A   1      26.205   6.202  29.179  1.00  0.00     0.131  C
HETATM   19 C19  LIG A   1      26.024   5.958  30.656  1.00  0.00     0.245  C
HETATM   20 O20  LIG A   1      26.621   6.709  31.475  1.00  0.00    -0.273  O
HETATM   21 C21  LIG A   1      24.896   6.632  28.513  1.00  0.00     0.072  C
HETATM   22 O22  LIG A   1      24.447   7.838  29.067  1.00  0.00    -0.394  O
HETATM   23 N23  LIG A   1      25.185   4.891  31.134  1.00  0.00    -0.342  N
HETATM   24 C24  LIG A   1      24.927   4.672  32.563  1.00  0.00     0.116  C
HETATM   25 C25  LIG A   1      24.895   3.195  32.865  1.00  0.00     0.243  C
HETATM   26 O26  LIG A   1      25.844   2.681  33.517  1.00  0.00    -0.273  O
HETATM   27 C27  LIG A   1      23.609   5.345  32.989  1.00  0.00     0.056  C
HETATM   28 C28  LIG A   1      23.730   6.841  32.990  1.00  0.00     0.220  C
HETATM   29 O29  LIG A   1      24.373   7.413  33.910  1.00  0.00    -0.275  O
HETATM   30 N30  LIG A   1      23.144   7.619  31.948  1.00  0.00    -0.370  N
HETATM   31 N31  LIG A   1      23.799   2.375  32.429  1.00  0.00    -0.340  N
HETATM   32 C32  LIG A   1      23.594   1.011  32.935  1.00  0.00     0.134  C
HETATM   33 C33  LIG A   1      24.196   0.003  31.988  1.00  0.00     0.245  C
HETATM   34 O34  LIG A   1      24.891  -0.939  32.456  1.00  0.00    -0.273  O
HETATM   35 C35  LIG A   1      22.097   0.725  33.180  1.00  0.00     0.080  C
HETATM   36 O36  LIG A   1      21.368   0.888  31.992  1.00  0.00    -0.391  O
HETATM   37 C37  LIG A   1      21.528   1.646  34.266  1.00  0.00    -0.036  C
HETATM   38 N38  LIG A   1      23.962   0.091  30.573  1.00  0.00    -0.342  N
HETATM   39 C39  LIG A   1      24.583  -0.830  29.613  1.00  0.00     0.108  C
HETATM   40 C40  LIG A   1      24.533  -0.251  28.219  1.00  0.00     0.243  C
HETATM   41 O41  LIG A   1      25.594  -0.182  27.544  1.00  0.00    -0.273  O
HETATM   42 C42  LIG A   1      23.886  -2.205  29.649  1.00  0.00    -0.024  C
HETATM   43 C43  LIG A   1      24.730  -3.287  28.960  1.00  0.00    -0.050  C
HETATM   44 C44  LIG A   1      23.987  -4.625  28.923  1.00  0.00    -0.041  C
HETATM   45 C45  LIG A   1      24.837  -5.718  28.275  1.00  0.00    -0.008  C
HETATM   46 N46  LIG A   1      24.054  -6.941  28.133  1.00  0.00    -0.330  N
HETATM   47 N47  LIG A   1      23.279   0.177  27.658  1.00  0.00    -0.343  N
HETATM   48 C48  LIG A   1      23.071   0.607  26.273  1.00  0.00     0.108  C
HETATM   49 C49  LIG A   1      23.141  -0.588  25.359  1.00  0.00     0.243  C
HETATM   50 O50  LIG A   1      24.260  -1.079  25.044  1.00  0.00    -0.273  O
HETATM   51 C51  LIG A   1      24.040   1.740  25.864  1.00  0.00    -0.024  C
HETATM   52 C52  LIG A   1      23.526   2.558  24.662  1.00  0.00    -0.050  C
HETATM   53 C53  LIG A   1      22.467   3.614  25.036  1.00  0.00    -0.041  C
HETATM   54 C54  LIG A   1      23.075   4.837  25.734  1.00  0.00    -0.008  C
HETATM   55 N55  LIG A   1      22.044   5.843  25.969  1.00  0.00    -0.330  N
HETATM   56 N56  LIG A   1      21.930  -1.222  24.920  1.00  0.00    -0.342  N
HETATM   57 C57  LIG A   1      21.899  -2.621  24.484  1.00  0.00     0.112  C
HETATM   58 C58  LIG A   1      20.577  -2.934  23.822  1.00  0.00     0.243  C
HETATM   59 O59  LIG A   1      20.571  -3.420  22.657  1.00  0.00    -0.273  O
HETATM   60 C60  LIG A   1      22.147  -3.549  25.688  1.00  0.00     0.002  C
HETATM   61 C61  LIG A   1      22.292  -4.989  25.271  1.00  0.00    -0.045  C
HETATM   62 C62  LIG A   1      23.540  -5.477  24.849  1.00  0.00    -0.059  C
HETATM   63 C63  LIG A   1      21.180  -5.848  25.270  1.00  0.00    -0.059  C
HETATM   64 C64  LIG A   1      23.679  -6.814  24.464  1.00  0.00    -0.062  C
HETATM   65 C65  LIG A   1      21.323  -7.183  24.882  1.00  0.00    -0.062  C
HETATM   66 C66  LIG A   1      22.572  -7.667  24.485  1.00  0.00    -0.062  C
HETATM   67 N67  LIG A   1      19.341  -2.709  24.514  1.00  0.00    -0.345  N
HETATM   68 C68  LIG A   1      18.049  -3.042  23.916  1.00  0.00     0.097  C
HETATM   69 C69  LIG A   1      16.930  -2.391  24.675  1.00  0.00     0.240  C
HETATM   70 O70  LIG A   1      16.971  -1.147  24.879  1.00  0.00    -0.273  O
HETATM   71 N71  LIG A   1      15.810  -3.165  25.134  1.00  0.00    -0.341  N
HETATM   72 C72  LIG A   1      14.765  -2.610  25.998  1.00  0.00     0.134  C
HETATM   73 C73  LIG A   1      14.980  -3.114  27.405  1.00  0.00     0.245  C
HETATM   74 O74  LIG A   1      15.729  -2.444  28.162  1.00  0.00    -0.273  O
HETATM   75 C75  LIG A   1      13.368  -2.907  25.404  1.00  0.00     0.080  C
HETATM   76 O76  LIG A   1      13.299  -2.348  24.117  1.00  0.00    -0.391  O
HETATM   77 C77  LIG A   1      12.248  -2.312  26.269  1.00  0.00    -0.036  C
HETATM   78 N78  LIG A   1      14.417  -4.355  27.877  1.00  0.00    -0.343  N
HETATM   79 C79  LIG A   1      14.702  -4.919  29.205  1.00  0.00     0.105  C
HETATM   80 C80  LIG A   1      14.366  -3.940  30.313  1.00  0.00     0.242  C
HETATM   81 O81  LIG A   1      13.579  -2.981  30.083  1.00  0.00    -0.273  O
HETATM   82 C82  LIG A   1      16.166  -5.374  29.267  1.00  0.00    -0.036  C
HETATM   83 N83  LIG A   1      14.880  -4.134  31.639  1.00  0.00    -0.342  N
HETATM   84 C84  LIG A   1      15.041  -3.031  32.593  1.00  0.00     0.110  C
HETATM   85 C85  LIG A   1      16.501  -2.654  32.662  1.00  0.00     0.243  C
HETATM   86 O86  LIG A   1      16.840  -1.463  32.430  1.00  0.00    -0.273  O
HETATM   87 C87  LIG A   1      14.477  -3.427  33.989  1.00  0.00    -0.015  C
HETATM   88 C88  LIG A   1      14.671  -2.281  35.003  1.00  0.00    -0.060  C
HETATM   89 C89  LIG A   1      12.979  -3.809  33.876  1.00  0.00    -0.051  C
HETATM   90 C90  LIG A   1      12.413  -4.414  35.164  1.00  0.00    -0.065  C
HETATM   91 N91  LIG A   1      17.495  -3.626  33.023  1.00  0.00    -0.343  N
HETATM   92 C92  LIG A   1      18.905  -3.267  33.210  1.00  0.00     0.105  C
HETATM   93 C93  LIG A   1      19.589  -3.096  31.881  1.00  0.00     0.243  C
HETATM   94 O94  LIG A   1      20.382  -2.131  31.719  1.00  0.00    -0.273  O
HETATM   95 C95  LIG A   1      19.625  -4.341  34.028  1.00  0.00    -0.036  C
HETATM   96 N96  LIG A   1      19.405  -4.061  30.833  1.00  0.00    -0.340  N
HETATM   97 C97  LIG A   1      20.169  -4.023  29.583  1.00  0.00     0.131  C
HETATM   98 C98  LIG A   1      19.493  -3.097  28.602  1.00  0.00     0.245  C
HETATM   99 O99  LIG A   1      18.630  -3.552  27.802  1.00  0.00    -0.273  O
HETATM  100 C100 LIG A   1      20.318  -5.442  29.012  1.00  0.00     0.072  C
HETATM  101 O101 LIG A   1      21.042  -6.239  29.908  1.00  0.00    -0.394  O
HETATM  102 N102 LIG A   1      19.769  -1.688  28.628  1.00  0.00    -0.342  N
HETATM  103 C103 LIG A   1      18.732  -0.715  28.279  1.00  0.00     0.113  C
HETATM  104 C104 LIG A   1      19.345   0.581  27.806  1.00  0.00     0.243  C
HETATM  105 O105 LIG A   1      19.191   0.928  26.603  1.00  0.00    -0.273  O
HETATM  106 C106 LIG A   1      17.810  -0.497  29.495  1.00  0.00     0.021  C
HETATM  107 C107 LIG A   1      16.626   0.379  29.195  1.00  0.00     0.061  C
HETATM  108 N108 LIG A   1      16.132   0.616  27.961  1.00  0.00    -0.242  N
HETATM  109 C109 LIG A   1      15.811   0.960  30.139  1.00  0.00     0.024  C
HETATM  110 C110 LIG A   1      15.034   1.364  28.188  1.00  0.00     0.092  C
HETATM  111 N111 LIG A   1      14.815   1.587  29.497  1.00  0.00    -0.351  N
HETATM  112 N112 LIG A   1      20.065   1.433  28.709  1.00  0.00    -0.341  N
HETATM  113 C113 LIG A   1      20.047   2.895  28.572  1.00  0.00     0.127  C
HETATM  114 C114 LIG A   1      21.364   3.491  28.999  1.00  0.00     0.326  C
HETATM  115 O115 LIG A   1      22.437   2.864  28.802  1.00  0.00    -0.250  O
HETATM  116 C116 LIG A   1      18.853   3.487  29.355  1.00  0.00    -0.020  C
HETATM  117 C117 LIG A   1      18.930   3.245  30.875  1.00  0.00    -0.033  C
HETATM  118 C118 LIG A   1      17.764   3.921  31.604  1.00  0.00     0.018  C
HETATM  119 N119 LIG A   1      17.989   3.917  33.050  1.00  0.00    -0.357  N
HETATM  120 C120 LIG A   1      17.904   2.738  33.864  1.00  0.00     0.185  C
HETATM  121 N121 LIG A   1      17.620   1.592  33.332  1.00  0.00    -0.270  N
HETATM  122 N122 LIG A   1      18.130   2.836  35.273  1.00  0.00    -0.370  N
HETATM  123 O123 LIG A   1      21.410   4.774  29.538  1.00  0.00    -0.480  O
ENDROOT
TORSDOF 0
                                                                                                                              
ENDMDL
