MODEL 1
REMARK VINA RESULT:   194.644      0.000      0.000
REMARK INTER + INTRA:         194.644
REMARK INTER:                 194.644
REMARK INTRA:                   0.000
REMARK UNBOUND:                 0.000
ROOT
HETATM    1 N1   LIG A   1     -26.070 -29.473 -16.678  1.00  0.00    -0.320  N
HETATM    2 C2   LIG A   1     -26.337 -28.146 -17.244  1.00  0.00     0.088  C
HETATM    3 C3   LIG A   1     -25.894 -28.062 -18.684  1.00  0.00     0.237  C
HETATM    4 O4   LIG A   1     -24.879 -28.704 -19.075  1.00  0.00    -0.273  O
HETATM    5 C5   LIG A   1     -25.646 -27.052 -16.415  1.00  0.00    -0.004  C
HETATM    6 C6   LIG A   1     -26.176 -27.009 -15.007  1.00  0.00    -0.046  C
HETATM    7 C7   LIG A   1     -27.310 -26.236 -14.703  1.00  0.00    -0.059  C
HETATM    8 C8   LIG A   1     -25.577 -27.780 -13.996  1.00  0.00    -0.059  C
HETATM    9 C9   LIG A   1     -27.825 -26.223 -13.403  1.00  0.00    -0.062  C
HETATM   10 C10  LIG A   1     -26.097 -27.766 -12.698  1.00  0.00    -0.062  C
HETATM   11 C11  LIG A   1     -27.220 -26.988 -12.401  1.00  0.00    -0.062  C
HETATM   12 N12  LIG A   1     -26.596 -27.204 -19.596  1.00  0.00    -0.343  N
HETATM   13 C13  LIG A   1     -26.268 -27.152 -21.025  1.00  0.00     0.110  C
HETATM   14 C14  LIG A   1     -25.071 -26.256 -21.220  1.00  0.00     0.243  C
HETATM   15 O15  LIG A   1     -25.022 -25.139 -20.638  1.00  0.00    -0.273  O
HETATM   16 C16  LIG A   1     -27.484 -26.664 -21.858  1.00  0.00    -0.018  C
HETATM   17 C17  LIG A   1     -27.157 -26.628 -23.362  1.00  0.00    -0.060  C
HETATM   18 C18  LIG A   1     -28.707 -27.569 -21.631  1.00  0.00    -0.060  C
HETATM   19 N19  LIG A   1     -24.011 -26.660 -22.100  1.00  0.00    -0.342  N
HETATM   20 C20  LIG A   1     -22.684 -26.030 -22.082  1.00  0.00     0.116  C
HETATM   21 C21  LIG A   1     -22.728 -24.659 -22.712  1.00  0.00     0.243  C
HETATM   22 O22  LIG A   1     -23.750 -24.285 -23.350  1.00  0.00    -0.273  O
HETATM   23 C23  LIG A   1     -21.658 -26.916 -22.813  1.00  0.00     0.056  C
HETATM   24 C24  LIG A   1     -21.471 -28.227 -22.103  1.00  0.00     0.220  C
HETATM   25 O25  LIG A   1     -20.794 -28.270 -21.042  1.00  0.00    -0.275  O
HETATM   26 N26  LIG A   1     -22.080 -29.418 -22.602  1.00  0.00    -0.370  N
HETATM   27 N27  LIG A   1     -21.594 -23.785 -22.593  1.00  0.00    -0.343  N
HETATM   28 C28  LIG A   1     -21.638 -22.380 -23.019  1.00  0.00     0.108  C
HETATM   29 C29  LIG A   1     -21.812 -22.300 -24.518  1.00  0.00     0.243  C
HETATM   30 O30  LIG A   1     -21.154 -23.092 -25.246  1.00  0.00    -0.273  O
HETATM   31 C31  LIG A   1     -20.343 -21.643 -22.611  1.00  0.00    -0.024  C
HETATM   32 C32  LIG A   1     -20.274 -21.411 -21.097  1.00  0.00    -0.050  C
HETATM   33 C33  LIG A   1     -18.937 -20.797 -20.670  1.00  0.00    -0.041  C
HETATM   34 C34  LIG A   1     -18.894 -20.595 -19.151  1.00  0.00    -0.008  C
HETATM   35 N35  LIG A   1     -17.555 -20.194 -18.729  1.00  0.00    -0.330  N
HETATM   36 N36  LIG A   1     -22.686 -21.347 -25.153  1.00  0.00    -0.343  N
HETATM   37 C37  LIG A   1     -23.309 -20.190 -24.501  1.00  0.00     0.108  C
HETATM   38 C38  LIG A   1     -24.803 -20.379 -24.468  1.00  0.00     0.243  C
HETATM   39 O39  LIG A   1     -25.486 -20.225 -25.516  1.00  0.00    -0.273  O
HETATM   40 C40  LIG A   1     -22.947 -18.892 -25.249  1.00  0.00    -0.021  C
HETATM   41 C41  LIG A   1     -21.462 -18.493 -25.083  1.00  0.00    -0.045  C
HETATM   42 C42  LIG A   1     -21.051 -17.523 -26.197  1.00  0.00    -0.063  C
HETATM   43 C43  LIG A   1     -21.197 -17.852 -23.711  1.00  0.00    -0.063  C
HETATM   44 N44  LIG A   1     -25.454 -20.730 -23.242  1.00  0.00    -0.342  N
HETATM   45 C45  LIG A   1     -26.575 -19.925 -22.746  1.00  0.00     0.116  C
HETATM   46 C46  LIG A   1     -26.046 -18.721 -22.014  1.00  0.00     0.243  C
HETATM   47 O47  LIG A   1     -24.861 -18.724 -21.583  1.00  0.00    -0.273  O
HETATM   48 C48  LIG A   1     -27.469 -20.763 -21.818  1.00  0.00     0.056  C
HETATM   49 C49  LIG A   1     -28.184 -21.831 -22.590  1.00  0.00     0.220  C
HETATM   50 O50  LIG A   1     -29.328 -21.600 -23.065  1.00  0.00    -0.275  O
HETATM   51 N51  LIG A   1     -27.556 -23.087 -22.842  1.00  0.00    -0.370  N
HETATM   52 N52  LIG A   1     -26.889 -17.580 -21.793  1.00  0.00    -0.343  N
HETATM   53 C53  LIG A   1     -26.398 -16.357 -21.150  1.00  0.00     0.108  C
HETATM   54 C54  LIG A   1     -27.344 -15.925 -20.061  1.00  0.00     0.243  C
HETATM   55 O55  LIG A   1     -28.571 -15.783 -20.314  1.00  0.00    -0.273  O
HETATM   56 C56  LIG A   1     -26.213 -15.236 -22.187  1.00  0.00    -0.022  C
HETATM   57 C57  LIG A   1     -25.020 -15.510 -23.119  1.00  0.00    -0.033  C
HETATM   58 C58  LIG A   1     -24.732 -14.298 -24.013  1.00  0.00     0.018  C
HETATM   59 N59  LIG A   1     -23.451 -14.454 -24.704  1.00  0.00    -0.357  N
HETATM   60 C60  LIG A   1     -22.190 -14.188 -24.071  1.00  0.00     0.185  C
HETATM   61 N61  LIG A   1     -22.134 -13.936 -22.800  1.00  0.00    -0.270  N
HETATM   62 N62  LIG A   1     -20.989 -14.199 -24.847  1.00  0.00    -0.370  N
HETATM   63 N63  LIG A   1     -26.833 -15.634 -18.750  1.00  0.00    -0.342  N
HETATM   64 C64  LIG A   1     -27.677 -15.278 -17.603  1.00  0.00     0.110  C
HETATM   65 C65  LIG A   1     -27.052 -14.138 -16.818  1.00  0.00     0.243  C
HETATM   66 O66  LIG A   1     -26.009 -13.580 -17.254  1.00  0.00    -0.273  O
HETATM   67 C67  LIG A   1     -27.972 -16.538 -16.726  1.00  0.00    -0.015  C
HETATM   68 C68  LIG A   1     -29.062 -17.396 -17.390  1.00  0.00    -0.060  C
HETATM   69 C69  LIG A   1     -26.738 -17.430 -16.433  1.00  0.00    -0.051  C
HETATM   70 C70  LIG A   1     -25.680 -16.755 -15.566  1.00  0.00    -0.065  C
HETATM   71 N71  LIG A   1     -27.676 -13.637 -15.624  1.00  0.00    -0.342  N
HETATM   72 C72  LIG A   1     -27.116 -12.503 -14.868  1.00  0.00     0.110  C
HETATM   73 C73  LIG A   1     -25.719 -12.823 -14.372  1.00  0.00     0.246  C
HETATM   74 O74  LIG A   1     -25.449 -13.998 -14.007  1.00  0.00    -0.272  O
HETATM   75 C75  LIG A   1     -28.047 -12.049 -13.704  1.00  0.00    -0.015  C
HETATM   76 C76  LIG A   1     -29.350 -11.443 -14.258  1.00  0.00    -0.060  C
HETATM   77 C77  LIG A   1     -28.334 -13.180 -12.681  1.00  0.00    -0.051  C
HETATM   78 C78  LIG A   1     -28.988 -12.665 -11.398  1.00  0.00    -0.065  C
HETATM   79 N79  LIG A   1     -24.689 -11.819 -14.330  1.00  0.00    -0.329  N
HETATM   80 C80  LIG A   1     -23.328 -12.060 -14.793  1.00  0.00     0.111  C
HETATM   81 C81  LIG A   1     -22.652 -13.173 -14.032  1.00  0.00     0.243  C
HETATM   82 O82  LIG A   1     -22.707 -13.192 -12.772  1.00  0.00    -0.273  O
HETATM   83 C83  LIG A   1     -22.588 -10.734 -14.606  1.00  0.00    -0.022  C
HETATM   84 C84  LIG A   1     -23.675  -9.673 -14.464  1.00  0.00    -0.033  C
HETATM   85 C85  LIG A   1     -24.932 -10.415 -14.031  1.00  0.00     0.021  C
HETATM   86 N86  LIG A   1     -21.912 -14.176 -14.746  1.00  0.00    -0.342  N
HETATM   87 C87  LIG A   1     -20.987 -15.135 -14.133  1.00  0.00     0.110  C
HETATM   88 C88  LIG A   1     -21.737 -16.089 -13.237  1.00  0.00     0.243  C
HETATM   89 O89  LIG A   1     -21.915 -15.820 -12.018  1.00  0.00    -0.273  O
HETATM   90 C90  LIG A   1     -19.803 -14.425 -13.418  1.00  0.00    -0.018  C
HETATM   91 C91  LIG A   1     -19.110 -13.422 -14.355  1.00  0.00    -0.060  C
HETATM   92 C92  LIG A   1     -18.767 -15.448 -12.918  1.00  0.00    -0.060  C
HETATM   93 N93  LIG A   1     -22.231 -17.321 -13.773  1.00  0.00    -0.343  N
HETATM   94 C94  LIG A   1     -22.064 -18.578 -13.038  1.00  0.00     0.108  C
HETATM   95 C95  LIG A   1     -20.610 -18.980 -13.058  1.00  0.00     0.243  C
HETATM   96 O96  LIG A   1     -20.074 -19.416 -12.003  1.00  0.00    -0.273  O
HETATM   97 C97  LIG A   1     -22.941 -19.681 -13.661  1.00  0.00    -0.024  C
HETATM   98 C98  LIG A   1     -23.043 -20.919 -12.760  1.00  0.00    -0.050  C
HETATM   99 C99  LIG A   1     -23.946 -21.986 -13.391  1.00  0.00    -0.041  C
HETATM  100 C100 LIG A   1     -24.023 -23.230 -12.504  1.00  0.00    -0.008  C
HETATM  101 N101 LIG A   1     -24.964 -24.193 -13.065  1.00  0.00    -0.330  N
HETATM  102 N102 LIG A   1     -19.848 -18.896 -14.273  1.00  0.00    -0.345  N
HETATM  103 C103 LIG A   1     -18.464 -19.350 -14.364  1.00  0.00     0.097  C
HETATM  104 C104 LIG A   1     -18.410 -20.846 -14.366  1.00  0.00     0.240  C
HETATM  105 O105 LIG A   1     -17.615 -21.442 -13.590  1.00  0.00    -0.273  O
HETATM  106 N106 LIG A   1     -19.236 -21.592 -15.272  1.00  0.00    -0.342  N
HETATM  107 C107 LIG A   1     -19.301 -23.057 -15.255  1.00  0.00     0.112  C
HETATM  108 C108 LIG A   1     -19.904 -23.559 -16.545  1.00  0.00     0.243  C
HETATM  109 O109 LIG A   1     -19.221 -24.315 -17.290  1.00  0.00    -0.273  O
HETATM  110 C110 LIG A   1     -20.101 -23.537 -14.028  1.00  0.00     0.002  C
HETATM  111 C111 LIG A   1     -20.209 -25.041 -13.972  1.00  0.00    -0.045  C
HETATM  112 C112 LIG A   1     -19.107 -25.815 -13.574  1.00  0.00    -0.059  C
HETATM  113 C113 LIG A   1     -21.397 -25.681 -14.357  1.00  0.00    -0.059  C
HETATM  114 C114 LIG A   1     -19.197 -27.211 -13.558  1.00  0.00    -0.062  C
HETATM  115 C115 LIG A   1     -21.483 -27.076 -14.343  1.00  0.00    -0.062  C
HETATM  116 C116 LIG A   1     -20.384 -27.841 -13.943  1.00  0.00    -0.062  C
HETATM  117 N117 LIG A   1     -21.238 -23.183 -16.921  1.00  0.00    -0.340  N
HETATM  118 C118 LIG A   1     -21.868 -23.631 -18.167  1.00  0.00     0.131  C
HETATM  119 C119 LIG A   1     -22.572 -22.496 -18.880  1.00  0.00     0.245  C
HETATM  120 O120 LIG A   1     -23.176 -22.744 -19.959  1.00  0.00    -0.273  O
HETATM  121 C121 LIG A   1     -22.845 -24.777 -17.862  1.00  0.00     0.072  C
HETATM  122 O122 LIG A   1     -23.995 -24.302 -17.215  1.00  0.00    -0.394  O
HETATM  123 N123 LIG A   1     -22.543 -21.148 -18.374  1.00  0.00    -0.342  N
HETATM  124 C124 LIG A   1     -23.491 -20.113 -18.814  1.00  0.00     0.109  C
HETATM  125 C125 LIG A   1     -23.231 -18.815 -18.085  1.00  0.00     0.243  C
HETATM  126 O126 LIG A   1     -23.124 -18.827 -16.830  1.00  0.00    -0.273  O
HETATM  127 C127 LIG A   1     -24.958 -20.563 -18.621  1.00  0.00    -0.015  C
HETATM  128 C128 LIG A   1     -25.295 -21.023 -17.189  1.00  0.00    -0.005  C
HETATM  129 S129 LIG A   1     -26.663 -22.240 -17.193  1.00  0.00    -0.165  S
HETATM  130 C130 LIG A   1     -28.002 -21.039 -17.473  1.00  0.00    -0.018  C
HETATM  131 N131 LIG A   1     -23.117 -17.575 -18.800  1.00  0.00    -0.341  N
HETATM  132 C132 LIG A   1     -22.484 -16.393 -18.198  1.00  0.00     0.127  C
HETATM  133 C133 LIG A   1     -23.098 -15.123 -18.723  1.00  0.00     0.326  C
HETATM  134 O134 LIG A   1     -23.272 -14.144 -17.951  1.00  0.00    -0.250  O
HETATM  135 C135 LIG A   1     -20.959 -16.428 -18.428  1.00  0.00    -0.020  C
HETATM  136 C136 LIG A   1     -20.561 -16.225 -19.901  1.00  0.00    -0.033  C
HETATM  137 C137 LIG A   1     -19.079 -16.526 -20.129  1.00  0.00     0.018  C
HETATM  138 N138 LIG A   1     -18.708 -16.264 -21.519  1.00  0.00    -0.357  N
HETATM  139 C139 LIG A   1     -17.456 -16.694 -22.069  1.00  0.00     0.185  C
HETATM  140 N140 LIG A   1     -16.589 -17.302 -21.322  1.00  0.00    -0.270  N
HETATM  141 N141 LIG A   1     -17.173 -16.460 -23.450  1.00  0.00    -0.370  N
HETATM  142 O142 LIG A   1     -23.417 -14.995 -20.070  1.00  0.00    -0.480  O
ENDROOT
TORSDOF 0
                                                                                                                                                 
ENDMDL
