MODEL 1
REMARK VINA RESULT:   186.175      0.000      0.000
REMARK INTER + INTRA:         186.175
REMARK INTER:                 186.175
REMARK INTRA:                   0.000
REMARK UNBOUND:                 0.000
ROOT
HETATM    1 N1   LIG A   1     -26.071 -12.202 -22.311  1.00  0.00    -0.320  N
HETATM    2 C2   LIG A   1     -26.288 -13.445 -21.563  1.00  0.00     0.088  C
HETATM    3 C3   LIG A   1     -25.752 -13.344 -20.156  1.00  0.00     0.237  C
HETATM    4 O4   LIG A   1     -24.720 -12.655 -19.919  1.00  0.00    -0.273  O
HETATM    5 C5   LIG A   1     -25.640 -14.635 -22.289  1.00  0.00    -0.004  C
HETATM    6 C6   LIG A   1     -26.261 -14.860 -23.642  1.00  0.00    -0.046  C
HETATM    7 C7   LIG A   1     -27.404 -15.667 -23.770  1.00  0.00    -0.059  C
HETATM    8 C8   LIG A   1     -25.736 -14.224 -24.781  1.00  0.00    -0.059  C
HETATM    9 C9   LIG A   1     -28.003 -15.848 -25.021  1.00  0.00    -0.062  C
HETATM   10 C10  LIG A   1     -26.339 -14.405 -26.029  1.00  0.00    -0.062  C
HETATM   11 C11  LIG A   1     -27.471 -15.217 -26.150  1.00  0.00    -0.062  C
HETATM   12 N12  LIG A   1     -26.384 -14.079 -19.098  1.00  0.00    -0.343  N
HETATM   13 C13  LIG A   1     -25.964 -13.947 -17.699  1.00  0.00     0.110  C
HETATM   14 C14  LIG A   1     -24.747 -14.808 -17.470  1.00  0.00     0.243  C
HETATM   15 O15  LIG A   1     -24.725 -15.991 -17.906  1.00  0.00    -0.273  O
HETATM   16 C16  LIG A   1     -27.118 -14.326 -16.732  1.00  0.00    -0.018  C
HETATM   17 C17  LIG A   1     -26.694 -14.169 -15.261  1.00  0.00    -0.060  C
HETATM   18 C18  LIG A   1     -28.362 -13.460 -16.992  1.00  0.00    -0.060  C
HETATM   19 N19  LIG A   1     -23.637 -14.293 -16.720  1.00  0.00    -0.342  N
HETATM   20 C20  LIG A   1     -22.307 -14.918 -16.744  1.00  0.00     0.116  C
HETATM   21 C21  LIG A   1     -22.296 -16.197 -15.943  1.00  0.00     0.243  C
HETATM   22 O22  LIG A   1     -23.271 -16.488 -15.197  1.00  0.00    -0.273  O
HETATM   23 C23  LIG A   1     -21.245 -13.944 -16.201  1.00  0.00     0.056  C
HETATM   24 C24  LIG A   1     -21.117 -12.735 -17.084  1.00  0.00     0.220  C
HETATM   25 O25  LIG A   1     -20.511 -12.826 -18.185  1.00  0.00    -0.275  O
HETATM   26 N26  LIG A   1     -21.705 -11.490 -16.702  1.00  0.00    -0.370  N
HETATM   27 N27  LIG A   1     -21.164 -17.078 -16.024  1.00  0.00    -0.343  N
HETATM   28 C28  LIG A   1     -21.166 -18.416 -15.420  1.00  0.00     0.108  C
HETATM   29 C29  LIG A   1     -21.241 -18.304 -13.914  1.00  0.00     0.243  C
HETATM   30 O30  LIG A   1     -20.546 -17.424 -13.338  1.00  0.00    -0.273  O
HETATM   31 C31  LIG A   1     -19.893 -19.197 -15.814  1.00  0.00    -0.024  C
HETATM   32 C32  LIG A   1     -19.920 -19.621 -17.288  1.00  0.00    -0.050  C
HETATM   33 C33  LIG A   1     -18.607 -20.283 -17.719  1.00  0.00    -0.041  C
HETATM   34 C34  LIG A   1     -18.661 -20.677 -19.200  1.00  0.00    -0.008  C
HETATM   35 N35  LIG A   1     -17.348 -21.127 -19.653  1.00  0.00    -0.330  N
HETATM   36 N36  LIG A   1     -22.063 -19.169 -13.106  1.00  0.00    -0.343  N
HETATM   37 C37  LIG A   1     -22.716 -20.401 -13.564  1.00  0.00     0.108  C
HETATM   38 C38  LIG A   1     -24.211 -20.220 -13.522  1.00  0.00     0.243  C
HETATM   39 O39  LIG A   1     -24.822 -20.240 -12.420  1.00  0.00    -0.273  O
HETATM   40 C40  LIG A   1     -22.293 -21.592 -12.681  1.00  0.00    -0.021  C
HETATM   41 C41  LIG A   1     -20.817 -22.006 -12.892  1.00  0.00    -0.045  C
HETATM   42 C42  LIG A   1     -20.326 -22.825 -11.693  1.00  0.00    -0.063  C
HETATM   43 C43  LIG A   1     -20.635 -22.817 -14.185  1.00  0.00    -0.063  C
HETATM   44 N44  LIG A   1     -24.943 -20.030 -14.737  1.00  0.00    -0.342  N
HETATM   45 C45  LIG A   1     -26.085 -20.894 -15.052  1.00  0.00     0.116  C
HETATM   46 C46  LIG A   1     -25.593 -22.181 -15.657  1.00  0.00     0.243  C
HETATM   47 O47  LIG A   1     -24.439 -22.231 -16.161  1.00  0.00    -0.273  O
HETATM   48 C48  LIG A   1     -27.046 -20.184 -16.019  1.00  0.00     0.056  C
HETATM   49 C49  LIG A   1     -27.720 -19.026 -15.345  1.00  0.00     0.220  C
HETATM   50 O50  LIG A   1     -28.829 -19.197 -14.769  1.00  0.00    -0.275  O
HETATM   51 N51  LIG A   1     -27.090 -17.748 -15.297  1.00  0.00    -0.370  N
HETATM   52 N52  LIG A   1     -26.437 -23.343 -15.674  1.00  0.00    -0.343  N
HETATM   53 C53  LIG A   1     -25.977 -24.637 -16.187  1.00  0.00     0.108  C
HETATM   54 C54  LIG A   1     -26.987 -25.207 -17.148  1.00  0.00     0.243  C
HETATM   55 O55  LIG A   1     -28.193 -25.317 -16.798  1.00  0.00    -0.273  O
HETATM   56 C56  LIG A   1     -25.713 -25.616 -15.030  1.00  0.00    -0.022  C
HETATM   57 C57  LIG A   1     -24.466 -25.222 -14.220  1.00  0.00    -0.033  C
HETATM   58 C58  LIG A   1     -24.107 -26.309 -13.200  1.00  0.00     0.018  C
HETATM   59 N59  LIG A   1     -22.786 -26.064 -12.620  1.00  0.00    -0.357  N
HETATM   60 C60  LIG A   1     -21.566 -26.407 -13.296  1.00  0.00     0.185  C
HETATM   61 N61  LIG A   1     -21.591 -26.819 -14.524  1.00  0.00    -0.270  N
HETATM   62 N62  LIG A   1     -20.318 -26.294 -12.608  1.00  0.00    -0.370  N
HETATM   63 N63  LIG A   1     -26.559 -25.662 -18.441  1.00  0.00    -0.342  N
HETATM   64 C64  LIG A   1     -27.472 -26.164 -19.476  1.00  0.00     0.110  C
HETATM   65 C65  LIG A   1     -26.888 -27.394 -20.148  1.00  0.00     0.243  C
HETATM   66 O66  LIG A   1     -25.813 -27.890 -19.713  1.00  0.00    -0.273  O
HETATM   67 C67  LIG A   1     -27.836 -25.027 -20.485  1.00  0.00    -0.015  C
HETATM   68 C68  LIG A   1     -28.889 -24.093 -19.866  1.00  0.00    -0.060  C
HETATM   69 C69  LIG A   1     -26.632 -24.178 -20.970  1.00  0.00    -0.051  C
HETATM   70 C70  LIG A   1     -25.627 -24.957 -21.811  1.00  0.00    -0.065  C
HETATM   71 N71  LIG A   1     -27.583 -28.045 -21.224  1.00  0.00    -0.342  N
HETATM   72 C72  LIG A   1     -27.062 -29.266 -21.864  1.00  0.00     0.110  C
HETATM   73 C73  LIG A   1     -25.704 -29.010 -22.487  1.00  0.00     0.246  C
HETATM   74 O74  LIG A   1     -25.469 -27.891 -23.016  1.00  0.00    -0.272  O
HETATM   75 C75  LIG A   1     -28.062 -29.867 -22.897  1.00  0.00    -0.015  C
HETATM   76 C76  LIG A   1     -29.320 -30.398 -22.186  1.00  0.00    -0.060  C
HETATM   77 C77  LIG A   1     -28.426 -28.876 -24.035  1.00  0.00    -0.051  C
HETATM   78 C78  LIG A   1     -29.156 -29.552 -25.196  1.00  0.00    -0.065  C
HETATM   79 N79  LIG A   1     -24.668 -30.009 -22.468  1.00  0.00    -0.329  N
HETATM   80 C80  LIG A   1     -23.282 -29.709 -22.130  1.00  0.00     0.111  C
HETATM   81 C81  LIG A   1     -22.668 -28.701 -23.070  1.00  0.00     0.243  C
HETATM   82 O82  LIG A   1     -22.805 -28.843 -24.316  1.00  0.00    -0.273  O
HETATM   83 C83  LIG A   1     -22.543 -31.046 -22.194  1.00  0.00    -0.022  C
HETATM   84 C84  LIG A   1     -23.625 -32.119 -22.128  1.00  0.00    -0.033  C
HETATM   85 C85  LIG A   1     -24.916 -31.440 -22.569  1.00  0.00     0.021  C
HETATM   86 N86  LIG A   1     -21.893 -27.613 -22.540  1.00  0.00    -0.342  N
HETATM   87 C87  LIG A   1     -21.020 -26.740 -23.330  1.00  0.00     0.110  C
HETATM   88 C88  LIG A   1     -21.836 -25.909 -24.290  1.00  0.00     0.243  C
HETATM   89 O89  LIG A   1     -22.090 -26.333 -25.450  1.00  0.00    -0.273  O
HETATM   90 C90  LIG A   1     -19.877 -27.534 -24.025  1.00  0.00    -0.018  C
HETATM   91 C91  LIG A   1     -19.116 -28.407 -23.015  1.00  0.00    -0.060  C
HETATM   92 C92  LIG A   1     -18.887 -26.581 -24.718  1.00  0.00    -0.060  C
HETATM   93 N93  LIG A   1     -22.307 -24.620 -23.884  1.00  0.00    -0.343  N
HETATM   94 C94  LIG A   1     -22.200 -23.467 -24.783  1.00  0.00     0.108  C
HETATM   95 C95  LIG A   1     -20.752 -23.064 -24.910  1.00  0.00     0.243  C
HETATM   96 O96  LIG A   1     -20.290 -22.765 -26.045  1.00  0.00    -0.273  O
HETATM   97 C97  LIG A   1     -23.046 -22.294 -24.250  1.00  0.00    -0.024  C
HETATM   98 C98  LIG A   1     -23.219 -21.183 -25.294  1.00  0.00    -0.050  C
HETATM   99 C99  LIG A   1     -24.089 -20.045 -24.746  1.00  0.00    -0.041  C
HETATM  100 C100 LIG A   1     -24.237 -18.925 -25.778  1.00  0.00    -0.008  C
HETATM  101 N101 LIG A   1     -25.149 -17.900 -25.284  1.00  0.00    -0.330  N
HETATM  102 N102 LIG A   1     -19.913 -22.989 -23.747  1.00  0.00    -0.345  N
HETATM  103 C103 LIG A   1     -18.530 -22.526 -23.806  1.00  0.00     0.097  C
HETATM  104 C104 LIG A   1     -18.491 -21.041 -23.998  1.00  0.00     0.240  C
HETATM  105 O105 LIG A   1     -17.754 -20.549 -24.895  1.00  0.00    -0.273  O
HETATM  106 N106 LIG A   1     -19.264 -20.186 -23.143  1.00  0.00    -0.342  N
HETATM  107 C107 LIG A   1     -19.344 -18.736 -23.343  1.00  0.00     0.112  C
HETATM  108 C108 LIG A   1     -19.868 -18.074 -22.091  1.00  0.00     0.243  C
HETATM  109 O109 LIG A   1     -19.145 -17.228 -21.495  1.00  0.00    -0.273  O
HETATM  110 C110 LIG A   1     -20.228 -18.419 -24.566  1.00  0.00     0.002  C
HETATM  111 C111 LIG A   1     -20.354 -16.935 -24.806  1.00  0.00    -0.045  C
HETATM  112 C112 LIG A   1     -19.287 -16.216 -25.371  1.00  0.00    -0.059  C
HETATM  113 C113 LIG A   1     -21.521 -16.252 -24.430  1.00  0.00    -0.059  C
HETATM  114 C114 LIG A   1     -19.393 -14.834 -25.560  1.00  0.00    -0.062  C
HETATM  115 C115 LIG A   1     -21.622 -14.871 -24.615  1.00  0.00    -0.062  C
HETATM  116 C116 LIG A   1     -20.558 -14.161 -25.182  1.00  0.00    -0.062  C
HETATM  117 N117 LIG A   1     -21.171 -18.401 -21.583  1.00  0.00    -0.340  N
HETATM  118 C118 LIG A   1     -21.723 -17.797 -20.366  1.00  0.00     0.131  C
HETATM  119 C119 LIG A   1     -22.368 -18.833 -19.469  1.00  0.00     0.245  C
HETATM  120 O120 LIG A   1     -22.902 -18.450 -18.393  1.00  0.00    -0.273  O
HETATM  121 C121 LIG A   1     -22.729 -16.702 -20.750  1.00  0.00     0.072  C
HETATM  122 O122 LIG A   1     -23.914 -17.258 -21.254  1.00  0.00    -0.394  O
HETATM  123 N123 LIG A   1     -22.358 -20.235 -19.800  1.00  0.00    -0.342  N
HETATM  124 C124 LIG A   1     -23.265 -21.207 -19.170  1.00  0.00     0.109  C
HETATM  125 C125 LIG A   1     -23.040 -22.586 -19.742  1.00  0.00     0.243  C
HETATM  126 O126 LIG A   1     -23.014 -22.735 -20.992  1.00  0.00    -0.273  O
HETATM  127 C127 LIG A   1     -24.745 -20.788 -19.322  1.00  0.00    -0.015  C
HETATM  128 C128 LIG A   1     -25.180 -20.515 -20.776  1.00  0.00    -0.005  C
HETATM  129 S129 LIG A   1     -26.556 -19.310 -20.838  1.00  0.00    -0.165  S
HETATM  130 C130 LIG A   1     -27.863 -20.468 -20.319  1.00  0.00    -0.018  C
HETATM  131 N131 LIG A   1     -22.868 -23.725 -18.884  1.00  0.00    -0.341  N
HETATM  132 C132 LIG A   1     -22.263 -24.973 -19.369  1.00  0.00     0.127  C
HETATM  133 C133 LIG A   1     -22.828 -26.167 -18.648  1.00  0.00     0.326  C
HETATM  134 O134 LIG A   1     -23.042 -27.236 -19.276  1.00  0.00    -0.250  O
HETATM  135 C135 LIG A   1     -20.727 -24.907 -19.246  1.00  0.00    -0.020  C
HETATM  136 C136 LIG A   1     -20.232 -24.918 -17.789  1.00  0.00    -0.033  C
HETATM  137 C137 LIG A   1     -18.742 -24.588 -17.700  1.00  0.00     0.018  C
HETATM  138 N138 LIG A   1     -18.278 -24.669 -16.314  1.00  0.00    -0.357  N
HETATM  139 C139 LIG A   1     -16.997 -24.170 -15.908  1.00  0.00     0.185  C
HETATM  140 N140 LIG A   1     -16.187 -23.661 -16.782  1.00  0.00    -0.270  N
HETATM  141 N141 LIG A   1     -16.623 -24.225 -14.529  1.00  0.00    -0.370  N
HETATM  142 O142 LIG A   1     -23.059 -26.122 -17.277  1.00  0.00    -0.480  O
ENDROOT
TORSDOF 0
                                                                                                                                                 
ENDMDL
