MODEL 1
REMARK VINA RESULT:   212.377      0.000      0.000
REMARK INTER + INTRA:         212.377
REMARK INTER:                 212.377
REMARK INTRA:                   0.000
REMARK UNBOUND:                 0.000
ROOT
HETATM    1 N1   LIG A   1     -26.168 -28.489 -18.458  1.00  0.00    -0.320  N
HETATM    2 C2   LIG A   1     -26.346 -27.093 -18.874  1.00  0.00     0.088  C
HETATM    3 C3   LIG A   1     -25.817 -26.862 -20.269  1.00  0.00     0.237  C
HETATM    4 O4   LIG A   1     -24.810 -27.502 -20.680  1.00  0.00    -0.273  O
HETATM    5 C5   LIG A   1     -25.658 -26.139 -17.886  1.00  0.00    -0.004  C
HETATM    6 C6   LIG A   1     -26.266 -26.236 -16.512  1.00  0.00    -0.046  C
HETATM    7 C7   LIG A   1     -27.382 -25.450 -16.177  1.00  0.00    -0.059  C
HETATM    8 C8   LIG A   1     -25.760 -27.149 -15.571  1.00  0.00    -0.059  C
HETATM    9 C9   LIG A   1     -27.971 -25.564 -14.913  1.00  0.00    -0.062  C
HETATM   10 C10  LIG A   1     -26.353 -27.262 -14.310  1.00  0.00    -0.062  C
HETATM   11 C11  LIG A   1     -27.457 -26.470 -13.980  1.00  0.00    -0.062  C
HETATM   12 N12  LIG A   1     -26.428 -25.870 -21.106  1.00  0.00    -0.343  N
HETATM   13 C13  LIG A   1     -26.017 -25.665 -22.500  1.00  0.00     0.110  C
HETATM   14 C14  LIG A   1     -24.773 -24.813 -22.523  1.00  0.00     0.243  C
HETATM   15 O15  LIG A   1     -24.711 -23.776 -21.809  1.00  0.00    -0.273  O
HETATM   16 C16  LIG A   1     -27.160 -25.024 -23.331  1.00  0.00    -0.018  C
HETATM   17 C17  LIG A   1     -26.746 -24.828 -24.800  1.00  0.00    -0.060  C
HETATM   18 C18  LIG A   1     -28.432 -25.889 -23.278  1.00  0.00    -0.060  C
HETATM   19 N19  LIG A   1     -23.683 -25.162 -23.388  1.00  0.00    -0.342  N
HETATM   20 C20  LIG A   1     -22.333 -24.603 -23.225  1.00  0.00     0.116  C
HETATM   21 C21  LIG A   1     -22.282 -23.167 -23.688  1.00  0.00     0.243  C
HETATM   22 O22  LIG A   1     -23.249 -22.672 -24.328  1.00  0.00    -0.273  O
HETATM   23 C23  LIG A   1     -21.304 -25.447 -24.003  1.00  0.00     0.056  C
HETATM   24 C24  LIG A   1     -21.214 -26.839 -23.447  1.00  0.00     0.220  C
HETATM   25 O25  LIG A   1     -20.602 -27.040 -22.364  1.00  0.00    -0.275  O
HETATM   26 N26  LIG A   1     -21.844 -27.932 -24.116  1.00  0.00    -0.370  N
HETATM   27 N27  LIG A   1     -21.121 -22.369 -23.405  1.00  0.00    -0.343  N
HETATM   28 C28  LIG A   1     -21.082 -20.924 -23.661  1.00  0.00     0.108  C
HETATM   29 C29  LIG A   1     -21.165 -20.659 -25.147  1.00  0.00     0.243  C
HETATM   30 O30  LIG A   1     -20.500 -21.391 -25.929  1.00  0.00    -0.273  O
HETATM   31 C31  LIG A   1     -19.783 -20.304 -23.100  1.00  0.00    -0.024  C
HETATM   32 C32  LIG A   1     -19.791 -20.256 -21.568  1.00  0.00    -0.050  C
HETATM   33 C33  LIG A   1     -18.457 -19.761 -21.001  1.00  0.00    -0.041  C
HETATM   34 C34  LIG A   1     -18.493 -19.742 -19.468  1.00  0.00    -0.008  C
HETATM   35 N35  LIG A   1     -17.165 -19.460 -18.932  1.00  0.00    -0.330  N
HETATM   36 N36  LIG A   1     -21.960 -19.597 -25.708  1.00  0.00    -0.343  N
HETATM   37 C37  LIG A   1     -22.571 -18.496 -24.955  1.00  0.00     0.108  C
HETATM   38 C38  LIG A   1     -24.071 -18.614 -25.023  1.00  0.00     0.243  C
HETATM   39 O39  LIG A   1     -24.685 -18.305 -26.080  1.00  0.00    -0.273  O
HETATM   40 C40  LIG A   1     -22.112 -17.138 -25.521  1.00  0.00    -0.021  C
HETATM   41 C41  LIG A   1     -20.622 -16.835 -25.231  1.00  0.00    -0.045  C
HETATM   42 C42  LIG A   1     -20.108 -15.761 -26.197  1.00  0.00    -0.063  C
HETATM   43 C43  LIG A   1     -20.410 -16.373 -23.780  1.00  0.00    -0.063  C
HETATM   44 N44  LIG A   1     -24.805 -19.075 -23.884  1.00  0.00    -0.342  N
HETATM   45 C45  LIG A   1     -25.918 -18.281 -23.354  1.00  0.00     0.116  C
HETATM   46 C46  LIG A   1     -25.382 -17.198 -22.456  1.00  0.00     0.243  C
HETATM   47 O47  LIG A   1     -24.226 -17.309 -21.968  1.00  0.00    -0.273  O
HETATM   48 C48  LIG A   1     -26.899 -19.177 -22.582  1.00  0.00     0.056  C
HETATM   49 C49  LIG A   1     -27.613 -20.111 -23.513  1.00  0.00     0.220  C
HETATM   50 O50  LIG A   1     -28.716 -19.770 -24.016  1.00  0.00    -0.275  O
HETATM   51 N51  LIG A   1     -27.024 -21.357 -23.880  1.00  0.00    -0.370  N
HETATM   52 N52  LIG A   1     -26.188 -16.051 -22.145  1.00  0.00    -0.343  N
HETATM   53 C53  LIG A   1     -25.684 -14.938 -21.334  1.00  0.00     0.108  C
HETATM   54 C54  LIG A   1     -26.672 -14.591 -20.252  1.00  0.00     0.243  C
HETATM   55 O55  LIG A   1     -27.875 -14.360 -20.551  1.00  0.00    -0.273  O
HETATM   56 C56  LIG A   1     -25.391 -13.713 -22.218  1.00  0.00    -0.022  C
HETATM   57 C57  LIG A   1     -24.160 -13.933 -23.113  1.00  0.00    -0.033  C
HETATM   58 C58  LIG A   1     -23.769 -12.640 -23.839  1.00  0.00     0.018  C
HETATM   59 N59  LIG A   1     -22.458 -12.776 -24.475  1.00  0.00    -0.357  N
HETATM   60 C60  LIG A   1     -21.226 -12.648 -23.749  1.00  0.00     0.185  C
HETATM   61 N61  LIG A   1     -21.233 -12.550 -22.456  1.00  0.00    -0.270  N
HETATM   62 N62  LIG A   1     -19.984 -12.626 -24.457  1.00  0.00    -0.370  N
HETATM   63 N63  LIG A   1     -26.225 -14.482 -18.891  1.00  0.00    -0.342  N
HETATM   64 C64  LIG A   1     -27.119 -14.222 -17.755  1.00  0.00     0.110  C
HETATM   65 C65  LIG A   1     -26.492 -13.214 -16.807  1.00  0.00     0.243  C
HETATM   66 O66  LIG A   1     -25.403 -12.660 -17.118  1.00  0.00    -0.273  O
HETATM   67 C67  LIG A   1     -27.517 -15.561 -17.053  1.00  0.00    -0.015  C
HETATM   68 C68  LIG A   1     -28.601 -16.280 -17.871  1.00  0.00    -0.060  C
HETATM   69 C69  LIG A   1     -26.340 -16.540 -16.805  1.00  0.00    -0.051  C
HETATM   70 C70  LIG A   1     -25.307 -16.024 -15.809  1.00  0.00    -0.065  C
HETATM   71 N71  LIG A   1     -27.163 -12.827 -15.596  1.00  0.00    -0.342  N
HETATM   72 C72  LIG A   1     -26.600 -11.818 -14.681  1.00  0.00     0.110  C
HETATM   73 C73  LIG A   1     -25.249 -12.262 -14.155  1.00  0.00     0.246  C
HETATM   74 O74  LIG A   1     -25.050 -13.484 -13.920  1.00  0.00    -0.272  O
HETATM   75 C75  LIG A   1     -27.577 -11.459 -13.521  1.00  0.00    -0.015  C
HETATM   76 C76  LIG A   1     -28.819 -10.730 -14.066  1.00  0.00    -0.060  C
HETATM   77 C77  LIG A   1     -27.970 -12.688 -12.658  1.00  0.00    -0.051  C
HETATM   78 C78  LIG A   1     -28.675 -12.296 -11.359  1.00  0.00    -0.065  C
HETATM   79 N79  LIG A   1     -24.181 -11.321 -13.939  1.00  0.00    -0.329  N
HETATM   80 C80  LIG A   1     -22.807 -11.572 -14.356  1.00  0.00     0.111  C
HETATM   81 C81  LIG A   1     -22.224 -12.799 -13.700  1.00  0.00     0.243  C
HETATM   82 O82  LIG A   1     -22.352 -12.963 -12.455  1.00  0.00    -0.273  O
HETATM   83 C83  LIG A   1     -22.024 -10.316 -13.972  1.00  0.00    -0.022  C
HETATM   84 C84  LIG A   1     -23.071  -9.226 -13.761  1.00  0.00    -0.033  C
HETATM   85 C85  LIG A   1     -24.382  -9.952 -13.487  1.00  0.00     0.021  C
HETATM   86 N86  LIG A   1     -21.487 -13.746 -14.489  1.00  0.00    -0.342  N
HETATM   87 C87  LIG A   1     -20.640 -14.814 -13.947  1.00  0.00     0.110  C
HETATM   88 C88  LIG A   1     -21.480 -15.830 -13.213  1.00  0.00     0.243  C
HETATM   89 O89  LIG A   1     -21.717 -15.697 -11.982  1.00  0.00    -0.273  O
HETATM   90 C90  LIG A   1     -19.470 -14.251 -13.091  1.00  0.00    -0.018  C
HETATM   91 C91  LIG A   1     -18.683 -13.181 -13.864  1.00  0.00    -0.060  C
HETATM   92 C92  LIG A   1     -18.510 -15.376 -12.664  1.00  0.00    -0.060  C
HETATM   93 N93  LIG A   1     -21.994 -16.964 -13.918  1.00  0.00    -0.343  N
HETATM   94 C94  LIG A   1     -21.923 -18.305 -13.332  1.00  0.00     0.108  C
HETATM   95 C95  LIG A   1     -20.489 -18.772 -13.324  1.00  0.00     0.243  C
HETATM   96 O96  LIG A   1     -20.033 -19.356 -12.302  1.00  0.00    -0.273  O
HETATM   97 C97  LIG A   1     -22.809 -19.284 -14.128  1.00  0.00    -0.024  C
HETATM   98 C98  LIG A   1     -23.015 -20.612 -13.388  1.00  0.00    -0.050  C
HETATM   99 C99  LIG A   1     -23.923 -21.553 -14.190  1.00  0.00    -0.041  C
HETATM  100 C100 LIG A   1     -24.105 -22.887 -13.463  1.00  0.00    -0.008  C
HETATM  101 N101 LIG A   1     -25.051 -23.730 -14.185  1.00  0.00    -0.330  N
HETATM  102 N102 LIG A   1     -19.655 -18.584 -14.479  1.00  0.00    -0.345  N
HETATM  103 C103 LIG A   1     -18.288 -19.090 -14.550  1.00  0.00     0.097  C
HETATM  104 C104 LIG A   1     -18.297 -20.578 -14.730  1.00  0.00     0.240  C
HETATM  105 O105 LIG A   1     -17.574 -21.298 -13.990  1.00  0.00    -0.273  O
HETATM  106 N106 LIG A   1     -19.101 -21.171 -15.761  1.00  0.00    -0.342  N
HETATM  107 C107 LIG A   1     -19.227 -22.622 -15.923  1.00  0.00     0.112  C
HETATM  108 C108 LIG A   1     -19.776 -22.939 -17.294  1.00  0.00     0.243  C
HETATM  109 O109 LIG A   1     -19.084 -23.634 -18.087  1.00  0.00    -0.273  O
HETATM  110 C110 LIG A   1     -20.117 -23.204 -14.806  1.00  0.00     0.002  C
HETATM  111 C111 LIG A   1     -20.291 -24.696 -14.937  1.00  0.00    -0.045  C
HETATM  112 C112 LIG A   1     -19.248 -25.565 -14.578  1.00  0.00    -0.059  C
HETATM  113 C113 LIG A   1     -21.482 -25.228 -15.457  1.00  0.00    -0.059  C
HETATM  114 C114 LIG A   1     -19.398 -26.947 -14.734  1.00  0.00    -0.062  C
HETATM  115 C115 LIG A   1     -21.627 -26.609 -15.616  1.00  0.00    -0.062  C
HETATM  116 C116 LIG A   1     -20.586 -27.469 -15.254  1.00  0.00    -0.062  C
HETATM  117 N117 LIG A   1     -21.069 -22.457 -17.692  1.00  0.00    -0.340  N
HETATM  118 C118 LIG A   1     -21.645 -22.724 -19.014  1.00  0.00     0.131  C
HETATM  119 C119 LIG A   1     -22.257 -21.480 -19.621  1.00  0.00     0.245  C
HETATM  120 O120 LIG A   1     -22.807 -21.569 -20.752  1.00  0.00    -0.273  O
HETATM  121 C121 LIG A   1     -22.685 -23.849 -18.900  1.00  0.00     0.072  C
HETATM  122 O122 LIG A   1     -23.849 -23.398 -18.262  1.00  0.00    -0.394  O
HETATM  123 N123 LIG A   1     -22.201 -20.204 -18.955  1.00  0.00    -0.342  N
HETATM  124 C124 LIG A   1     -23.077 -19.079 -19.317  1.00  0.00     0.109  C
HETATM  125 C125 LIG A   1     -22.805 -17.891 -18.425  1.00  0.00     0.243  C
HETATM  126 O126 LIG A   1     -22.771 -18.055 -17.177  1.00  0.00    -0.273  O
HETATM  127 C127 LIG A   1     -24.570 -19.477 -19.257  1.00  0.00    -0.015  C
HETATM  128 C128 LIG A   1     -25.009 -20.086 -17.910  1.00  0.00    -0.005  C
HETATM  129 S129 LIG A   1     -26.424 -21.226 -18.132  1.00  0.00    -0.165  S
HETATM  130 C130 LIG A   1     -27.693 -19.936 -18.335  1.00  0.00    -0.018  C
HETATM  131 N131 LIG A   1     -22.598 -16.582 -18.979  1.00  0.00    -0.341  N
HETATM  132 C132 LIG A   1     -21.952 -15.511 -18.208  1.00  0.00     0.127  C
HETATM  133 C133 LIG A   1     -22.480 -14.160 -18.607  1.00  0.00     0.326  C
HETATM  134 O134 LIG A   1     -22.657 -13.271 -17.733  1.00  0.00    -0.250  O
HETATM  135 C135 LIG A   1     -20.419 -15.593 -18.360  1.00  0.00    -0.020  C
HETATM  136 C136 LIG A   1     -19.928 -15.238 -19.775  1.00  0.00    -0.033  C
HETATM  137 C137 LIG A   1     -18.450 -15.582 -19.959  1.00  0.00     0.018  C
HETATM  138 N138 LIG A   1     -17.988 -15.177 -21.287  1.00  0.00    -0.357  N
HETATM  139 C139 LIG A   1     -16.725 -15.600 -21.817  1.00  0.00     0.185  C
HETATM  140 N140 LIG A   1     -15.929 -16.333 -21.104  1.00  0.00    -0.270  N
HETATM  141 N141 LIG A   1     -16.353 -15.219 -23.144  1.00  0.00    -0.370  N
HETATM  142 O142 LIG A   1     -22.715 -13.859 -19.944  1.00  0.00    -0.480  O
ENDROOT
TORSDOF 0
                                                                                                                                                 
ENDMDL
