MODEL 1
REMARK VINA RESULT:    -7.221      0.000      0.000
REMARK INTER + INTRA:          -7.221
REMARK INTER:                  -7.221
REMARK INTRA:                   0.000
REMARK UNBOUND:                 0.000
ROOT
HETATM    1 N1   LIG A   1      32.658   6.696  30.100  1.00  0.00    -0.320  N
HETATM    2 C2   LIG A   1      31.297   6.412  29.633  1.00  0.00     0.088  C
HETATM    3 C3   LIG A   1      30.262   6.977  30.576  1.00  0.00     0.237  C
HETATM    4 O4   LIG A   1      30.490   7.019  31.817  1.00  0.00    -0.273  O
HETATM    5 C5   LIG A   1      31.085   4.900  29.463  1.00  0.00    -0.004  C
HETATM    6 C6   LIG A   1      32.002   4.330  28.414  1.00  0.00    -0.046  C
HETATM    7 C7   LIG A   1      31.616   4.329  27.063  1.00  0.00    -0.059  C
HETATM    8 C8   LIG A   1      33.272   3.841  28.768  1.00  0.00    -0.059  C
HETATM    9 C9   LIG A   1      32.482   3.832  26.083  1.00  0.00    -0.062  C
HETATM   10 C10  LIG A   1      34.135   3.348  27.785  1.00  0.00    -0.062  C
HETATM   11 C11  LIG A   1      33.741   3.342  26.444  1.00  0.00    -0.062  C
HETATM   12 N12  LIG A   1      28.994   7.412  30.064  1.00  0.00    -0.343  N
HETATM   13 C13  LIG A   1      27.987   8.052  30.917  1.00  0.00     0.110  C
HETATM   14 C14  LIG A   1      27.233   6.984  31.670  1.00  0.00     0.243  C
HETATM   15 O15  LIG A   1      26.818   5.962  31.059  1.00  0.00    -0.273  O
HETATM   16 C16  LIG A   1      27.028   8.940  30.079  1.00  0.00    -0.018  C
HETATM   17 C17  LIG A   1      25.982   9.634  30.970  1.00  0.00    -0.060  C
HETATM   18 C18  LIG A   1      27.810  10.008  29.295  1.00  0.00    -0.060  C
HETATM   19 N19  LIG A   1      26.954   7.155  33.067  1.00  0.00    -0.342  N
HETATM   20 C20  LIG A   1      26.543   6.042  33.934  1.00  0.00     0.116  C
HETATM   21 C21  LIG A   1      25.111   5.647  33.665  1.00  0.00     0.243  C
HETATM   22 O22  LIG A   1      24.375   6.377  32.946  1.00  0.00    -0.273  O
HETATM   23 C23  LIG A   1      26.716   6.423  35.417  1.00  0.00     0.056  C
HETATM   24 C24  LIG A   1      28.162   6.656  35.751  1.00  0.00     0.220  C
HETATM   25 O25  LIG A   1      28.939   5.673  35.883  1.00  0.00    -0.275  O
HETATM   26 N26  LIG A   1      28.673   7.983  35.886  1.00  0.00    -0.370  N
HETATM   27 N27  LIG A   1      24.586   4.439  34.239  1.00  0.00    -0.343  N
HETATM   28 C28  LIG A   1      23.270   3.903  33.871  1.00  0.00     0.108  C
HETATM   29 C29  LIG A   1      22.181   4.846  34.327  1.00  0.00     0.243  C
HETATM   30 O30  LIG A   1      22.278   5.375  35.468  1.00  0.00    -0.273  O
HETATM   31 C31  LIG A   1      23.047   2.513  34.508  1.00  0.00    -0.024  C
HETATM   32 C32  LIG A   1      23.916   1.438  33.846  1.00  0.00    -0.050  C
HETATM   33 C33  LIG A   1      23.796   0.085  34.555  1.00  0.00    -0.041  C
HETATM   34 C34  LIG A   1      24.690  -0.962  33.879  1.00  0.00    -0.008  C
HETATM   35 N35  LIG A   1      24.722  -2.188  34.669  1.00  0.00    -0.330  N
HETATM   36 N36  LIG A   1      21.028   5.158  33.521  1.00  0.00    -0.343  N
HETATM   37 C37  LIG A   1      20.615   4.443  32.308  1.00  0.00     0.108  C
HETATM   38 C38  LIG A   1      20.734   5.362  31.120  1.00  0.00     0.243  C
HETATM   39 O39  LIG A   1      19.886   6.276  30.937  1.00  0.00    -0.273  O
HETATM   40 C40  LIG A   1      19.166   3.935  32.451  1.00  0.00    -0.021  C
HETATM   41 C41  LIG A   1      19.030   2.780  33.472  1.00  0.00    -0.045  C
HETATM   42 C42  LIG A   1      17.571   2.654  33.928  1.00  0.00    -0.063  C
HETATM   43 C43  LIG A   1      19.508   1.443  32.883  1.00  0.00    -0.063  C
HETATM   44 N44  LIG A   1      21.811   5.196  30.192  1.00  0.00    -0.342  N
HETATM   45 C45  LIG A   1      21.534   5.055  28.759  1.00  0.00     0.116  C
HETATM   46 C46  LIG A   1      21.171   3.627  28.454  1.00  0.00     0.243  C
HETATM   47 O47  LIG A   1      21.500   2.714  29.259  1.00  0.00    -0.273  O
HETATM   48 C48  LIG A   1      22.755   5.484  27.930  1.00  0.00     0.056  C
HETATM   49 C49  LIG A   1      22.987   6.961  28.048  1.00  0.00     0.220  C
HETATM   50 O50  LIG A   1      22.462   7.745  27.213  1.00  0.00    -0.275  O
HETATM   51 N51  LIG A   1      23.746   7.491  29.133  1.00  0.00    -0.370  N
HETATM   52 N52  LIG A   1      20.467   3.301  27.245  1.00  0.00    -0.343  N
HETATM   53 C53  LIG A   1      20.030   1.935  26.939  1.00  0.00     0.108  C
HETATM   54 C54  LIG A   1      20.435   1.560  25.537  1.00  0.00     0.243  C
HETATM   55 O55  LIG A   1      20.124   2.309  24.572  1.00  0.00    -0.273  O
HETATM   56 C56  LIG A   1      18.508   1.800  27.121  1.00  0.00    -0.022  C
HETATM   57 C57  LIG A   1      18.103   1.854  28.604  1.00  0.00    -0.033  C
HETATM   58 C58  LIG A   1      16.615   1.523  28.779  1.00  0.00     0.018  C
HETATM   59 N59  LIG A   1      16.291   1.315  30.191  1.00  0.00    -0.357  N
HETATM   60 C60  LIG A   1      16.564   0.083  30.877  1.00  0.00     0.185  C
HETATM   61 N61  LIG A   1      17.252  -0.851  30.297  1.00  0.00    -0.270  N
HETATM   62 N62  LIG A   1      16.074  -0.114  32.205  1.00  0.00    -0.370  N
HETATM   63 N63  LIG A   1      21.133   0.326  25.306  1.00  0.00    -0.342  N
HETATM   64 C64  LIG A   1      21.635  -0.097  23.992  1.00  0.00     0.110  C
HETATM   65 C65  LIG A   1      21.358  -1.573  23.769  1.00  0.00     0.243  C
HETATM   66 O66  LIG A   1      20.681  -2.215  24.616  1.00  0.00    -0.273  O
HETATM   67 C67  LIG A   1      23.146   0.276  23.837  1.00  0.00    -0.015  C
HETATM   68 C68  LIG A   1      23.287   1.773  23.522  1.00  0.00    -0.060  C
HETATM   69 C69  LIG A   1      24.030  -0.066  25.065  1.00  0.00    -0.051  C
HETATM   70 C70  LIG A   1      24.159  -1.562  25.334  1.00  0.00    -0.065  C
HETATM   71 N71  LIG A   1      21.793  -2.229  22.566  1.00  0.00    -0.342  N
HETATM   72 C72  LIG A   1      21.499  -3.649  22.302  1.00  0.00     0.110  C
HETATM   73 C73  LIG A   1      22.109  -4.533  23.371  1.00  0.00     0.246  C
HETATM   74 O74  LIG A   1      23.222  -4.219  23.870  1.00  0.00    -0.272  O
HETATM   75 C75  LIG A   1      21.939  -4.090  20.873  1.00  0.00    -0.015  C
HETATM   76 C76  LIG A   1      21.084  -3.388  19.803  1.00  0.00    -0.060  C
HETATM   77 C77  LIG A   1      23.456  -3.884  20.616  1.00  0.00    -0.051  C
HETATM   78 C78  LIG A   1      23.940  -4.584  19.347  1.00  0.00    -0.065  C
HETATM   79 N79  LIG A   1      21.433  -5.713  23.846  1.00  0.00    -0.329  N
HETATM   80 C80  LIG A   1      21.329  -6.052  25.259  1.00  0.00     0.111  C
HETATM   81 C81  LIG A   1      22.679  -6.235  25.906  1.00  0.00     0.243  C
HETATM   82 O82  LIG A   1      23.554  -6.944  25.338  1.00  0.00    -0.273  O
HETATM   83 C83  LIG A   1      20.511  -7.343  25.314  1.00  0.00    -0.022  C
HETATM   84 C84  LIG A   1      19.805  -7.441  23.965  1.00  0.00    -0.033  C
HETATM   85 C85  LIG A   1      20.608  -6.571  23.007  1.00  0.00     0.021  C
HETATM   86 N86  LIG A   1      22.942  -5.638  27.186  1.00  0.00    -0.342  N
HETATM   87 C87  LIG A   1      24.086  -5.961  28.046  1.00  0.00     0.110  C
HETATM   88 C88  LIG A   1      25.374  -5.525  27.393  1.00  0.00     0.243  C
HETATM   89 O89  LIG A   1      26.007  -6.309  26.634  1.00  0.00    -0.273  O
HETATM   90 C90  LIG A   1      24.089  -7.456  28.472  1.00  0.00    -0.018  C
HETATM   91 C91  LIG A   1      22.736  -7.863  29.077  1.00  0.00    -0.060  C
HETATM   92 C92  LIG A   1      25.205  -7.735  29.495  1.00  0.00    -0.060  C
HETATM   93 N93  LIG A   1      25.892  -4.216  27.655  1.00  0.00    -0.343  N
HETATM   94 C94  LIG A   1      27.315  -4.018  27.942  1.00  0.00     0.108  C
HETATM   95 C95  LIG A   1      27.634  -4.580  29.305  1.00  0.00     0.243  C
HETATM   96 O96  LIG A   1      28.688  -5.253  29.467  1.00  0.00    -0.273  O
HETATM   97 C97  LIG A   1      27.669  -2.520  27.875  1.00  0.00    -0.024  C
HETATM   98 C98  LIG A   1      29.185  -2.282  27.861  1.00  0.00    -0.050  C
HETATM   99 C99  LIG A   1      29.507  -0.786  27.764  1.00  0.00    -0.041  C
HETATM  100 C100 LIG A   1      31.019  -0.550  27.779  1.00  0.00    -0.008  C
HETATM  101 N101 LIG A   1      31.311   0.865  27.583  1.00  0.00    -0.330  N
HETATM  102 N102 LIG A   1      26.762  -4.326  30.419  1.00  0.00    -0.345  N
HETATM  103 C103 LIG A   1      27.068  -4.777  31.773  1.00  0.00     0.097  C
HETATM  104 C104 LIG A   1      28.159  -3.937  32.363  1.00  0.00     0.240  C
HETATM  105 O105 LIG A   1      29.145  -4.496  32.915  1.00  0.00    -0.273  O
HETATM  106 N106 LIG A   1      28.060  -2.506  32.327  1.00  0.00    -0.342  N
HETATM  107 C107 LIG A   1      29.138  -1.630  32.799  1.00  0.00     0.112  C
HETATM  108 C108 LIG A   1      28.605  -0.236  33.021  1.00  0.00     0.243  C
HETATM  109 O109 LIG A   1      28.664   0.268  34.177  1.00  0.00    -0.273  O
HETATM  110 C110 LIG A   1      30.306  -1.640  31.792  1.00  0.00     0.002  C
HETATM  111 C111 LIG A   1      31.437  -0.741  32.226  1.00  0.00    -0.045  C
HETATM  112 C112 LIG A   1      32.303  -1.140  33.257  1.00  0.00    -0.059  C
HETATM  113 C113 LIG A   1      31.608   0.520  31.632  1.00  0.00    -0.059  C
HETATM  114 C114 LIG A   1      33.329  -0.289  33.682  1.00  0.00    -0.062  C
HETATM  115 C115 LIG A   1      32.632   1.369  32.062  1.00  0.00    -0.062  C
HETATM  116 C116 LIG A   1      33.493   0.964  33.086  1.00  0.00    -0.062  C
HETATM  117 N117 LIG A   1      28.037   0.511  31.934  1.00  0.00    -0.340  N
HETATM  118 C118 LIG A   1      27.495   1.864  32.096  1.00  0.00     0.131  C
HETATM  119 C119 LIG A   1      26.160   2.020  31.398  1.00  0.00     0.245  C
HETATM  120 O120 LIG A   1      25.586   3.143  31.439  1.00  0.00    -0.273  O
HETATM  121 C121 LIG A   1      28.512   2.888  31.572  1.00  0.00     0.072  C
HETATM  122 O122 LIG A   1      28.577   2.866  30.172  1.00  0.00    -0.394  O
HETATM  123 N123 LIG A   1      25.526   0.921  30.719  1.00  0.00    -0.342  N
HETATM  124 C124 LIG A   1      24.444   1.108  29.739  1.00  0.00     0.109  C
HETATM  125 C125 LIG A   1      24.004  -0.224  29.178  1.00  0.00     0.243  C
HETATM  126 O126 LIG A   1      24.874  -1.024  28.745  1.00  0.00    -0.273  O
HETATM  127 C127 LIG A   1      24.864   2.068  28.603  1.00  0.00    -0.015  C
HETATM  128 C128 LIG A   1      26.171   1.669  27.888  1.00  0.00    -0.005  C
HETATM  129 S129 LIG A   1      27.018   3.136  27.195  1.00  0.00    -0.165  S
HETATM  130 C130 LIG A   1      25.914   3.349  25.762  1.00  0.00    -0.018  C
HETATM  131 N131 LIG A   1      22.614  -0.580  29.122  1.00  0.00    -0.341  N
HETATM  132 C132 LIG A   1      22.181  -1.976  28.966  1.00  0.00     0.127  C
HETATM  133 C133 LIG A   1      20.880  -2.060  28.215  1.00  0.00     0.326  C
HETATM  134 O134 LIG A   1      20.690  -2.991  27.390  1.00  0.00    -0.250  O
HETATM  135 C135 LIG A   1      22.090  -2.664  30.343  1.00  0.00    -0.020  C
HETATM  136 C136 LIG A   1      20.946  -2.125  31.220  1.00  0.00    -0.033  C
HETATM  137 C137 LIG A   1      21.049  -2.637  32.657  1.00  0.00     0.018  C
HETATM  138 N138 LIG A   1      19.917  -2.166  33.455  1.00  0.00    -0.357  N
HETATM  139 C139 LIG A   1      19.889  -2.283  34.883  1.00  0.00     0.185  C
HETATM  140 N140 LIG A   1      20.866  -2.857  35.511  1.00  0.00    -0.270  N
HETATM  141 N141 LIG A   1      18.781  -1.753  35.613  1.00  0.00    -0.370  N
HETATM  142 O142 LIG A   1      19.856  -1.153  28.468  1.00  0.00    -0.480  O
ENDROOT
TORSDOF 0
                                                                                                                                                 
ENDMDL
MODEL 2
REMARK VINA RESULT:    -6.833      3.088      5.653
REMARK INTER + INTRA:          -6.833
REMARK INTER:                  -6.833
REMARK INTRA:                   0.000
REMARK UNBOUND:                 0.000
ROOT
HETATM    1 N1   LIG A   1      28.961   5.012  26.715  1.00  0.00    -0.320  N
HETATM    2 C2   LIG A   1      27.831   4.123  26.425  1.00  0.00     0.088  C
HETATM    3 C3   LIG A   1      26.510   4.821  26.641  1.00  0.00     0.237  C
HETATM    4 O4   LIG A   1      26.393   5.688  27.552  1.00  0.00    -0.273  O
HETATM    5 C5   LIG A   1      27.903   2.853  27.287  1.00  0.00    -0.004  C
HETATM    6 C6   LIG A   1      29.141   2.051  26.984  1.00  0.00    -0.046  C
HETATM    7 C7   LIG A   1      29.131   1.102  25.949  1.00  0.00    -0.059  C
HETATM    8 C8   LIG A   1      30.330   2.281  27.697  1.00  0.00    -0.059  C
HETATM    9 C9   LIG A   1      30.291   0.381  25.643  1.00  0.00    -0.062  C
HETATM   10 C10  LIG A   1      31.487   1.560  27.387  1.00  0.00    -0.062  C
HETATM   11 C11  LIG A   1      31.468   0.610  26.361  1.00  0.00    -0.062  C
HETATM   12 N12  LIG A   1      25.373   4.455  25.847  1.00  0.00    -0.343  N
HETATM   13 C13  LIG A   1      24.091   5.161  25.950  1.00  0.00     0.110  C
HETATM   14 C14  LIG A   1      23.335   4.632  27.143  1.00  0.00     0.243  C
HETATM   15 O15  LIG A   1      23.256   3.388  27.333  1.00  0.00    -0.273  O
HETATM   16 C16  LIG A   1      23.266   5.013  24.643  1.00  0.00    -0.018  C
HETATM   17 C17  LIG A   1      21.928   5.770  24.734  1.00  0.00    -0.060  C
HETATM   18 C18  LIG A   1      24.057   5.532  23.430  1.00  0.00    -0.060  C
HETATM   19 N19  LIG A   1      22.673   5.543  28.032  1.00  0.00    -0.342  N
HETATM   20 C20  LIG A   1      22.220   5.151  29.374  1.00  0.00     0.116  C
HETATM   21 C21  LIG A   1      20.988   4.282  29.296  1.00  0.00     0.243  C
HETATM   22 O22  LIG A   1      20.367   4.157  28.206  1.00  0.00    -0.273  O
HETATM   23 C23  LIG A   1      21.935   6.398  30.232  1.00  0.00     0.056  C
HETATM   24 C24  LIG A   1      23.188   7.192  30.466  1.00  0.00     0.220  C
HETATM   25 O25  LIG A   1      24.041   6.781  31.298  1.00  0.00    -0.275  O
HETATM   26 N26  LIG A   1      23.438   8.391  29.732  1.00  0.00    -0.370  N
HETATM   27 N27  LIG A   1      20.519   3.606  30.474  1.00  0.00    -0.343  N
HETATM   28 C28  LIG A   1      19.444   2.607  30.429  1.00  0.00     0.108  C
HETATM   29 C29  LIG A   1      18.142   3.264  30.028  1.00  0.00     0.243  C
HETATM   30 O30  LIG A   1      17.853   4.385  30.527  1.00  0.00    -0.273  O
HETATM   31 C31  LIG A   1      19.272   1.924  31.804  1.00  0.00    -0.024  C
HETATM   32 C32  LIG A   1      20.438   0.979  32.119  1.00  0.00    -0.050  C
HETATM   33 C33  LIG A   1      20.340   0.398  33.533  1.00  0.00    -0.041  C
HETATM   34 C34  LIG A   1      21.529  -0.527  33.821  1.00  0.00    -0.008  C
HETATM   35 N35  LIG A   1      21.535  -0.923  35.226  1.00  0.00    -0.330  N
HETATM   36 N36  LIG A   1      17.212   2.659  29.111  1.00  0.00    -0.343  N
HETATM   37 C37  LIG A   1      17.247   1.266  28.650  1.00  0.00     0.108  C
HETATM   38 C38  LIG A   1      17.537   1.234  27.172  1.00  0.00     0.243  C
HETATM   39 O39  LIG A   1      16.639   1.543  26.343  1.00  0.00    -0.273  O
HETATM   40 C40  LIG A   1      15.907   0.566  28.951  1.00  0.00    -0.021  C
HETATM   41 C41  LIG A   1      15.681   0.318  30.461  1.00  0.00    -0.045  C
HETATM   42 C42  LIG A   1      14.190   0.088  30.738  1.00  0.00    -0.063  C
HETATM   43 C43  LIG A   1      16.494  -0.885  30.966  1.00  0.00    -0.063  C
HETATM   44 N44  LIG A   1      18.833   0.848  26.705  1.00  0.00    -0.342  N
HETATM   45 C45  LIG A   1      18.970  -0.224  25.713  1.00  0.00     0.116  C
HETATM   46 C46  LIG A   1      18.922  -1.560  26.405  1.00  0.00     0.243  C
HETATM   47 O47  LIG A   1      19.159  -1.631  27.641  1.00  0.00    -0.273  O
HETATM   48 C48  LIG A   1      20.288  -0.073  24.937  1.00  0.00     0.056  C
HETATM   49 C49  LIG A   1      20.254   1.144  24.062  1.00  0.00     0.220  C
HETATM   50 O50  LIG A   1      19.857   1.047  22.870  1.00  0.00    -0.275  O
HETATM   51 N51  LIG A   1      20.610   2.423  24.585  1.00  0.00    -0.370  N
HETATM   52 N52  LIG A   1      18.621  -2.750  25.660  1.00  0.00    -0.343  N
HETATM   53 C53  LIG A   1      18.491  -4.062  26.301  1.00  0.00     0.108  C
HETATM   54 C54  LIG A   1      19.305  -5.089  25.557  1.00  0.00     0.243  C
HETATM   55 O55  LIG A   1      19.152  -5.230  24.313  1.00  0.00    -0.273  O
HETATM   56 C56  LIG A   1      17.014  -4.487  26.375  1.00  0.00    -0.022  C
HETATM   57 C57  LIG A   1      16.227  -3.645  27.393  1.00  0.00    -0.033  C
HETATM   58 C58  LIG A   1      14.814  -4.206  27.595  1.00  0.00     0.018  C
HETATM   59 N59  LIG A   1      14.163  -3.576  28.744  1.00  0.00    -0.357  N
HETATM   60 C60  LIG A   1      14.428  -3.970  30.099  1.00  0.00     0.185  C
HETATM   61 N61  LIG A   1      15.377  -4.813  30.363  1.00  0.00    -0.270  N
HETATM   62 N62  LIG A   1      13.639  -3.431  31.162  1.00  0.00    -0.370  N
HETATM   63 N63  LIG A   1      20.218  -5.931  26.279  1.00  0.00    -0.342  N
HETATM   64 C64  LIG A   1      21.108  -6.909  25.641  1.00  0.00     0.110  C
HETATM   65 C65  LIG A   1      21.127  -8.204  26.433  1.00  0.00     0.243  C
HETATM   66 O66  LIG A   1      20.355  -8.343  27.420  1.00  0.00    -0.273  O
HETATM   67 C67  LIG A   1      22.531  -6.298  25.428  1.00  0.00    -0.015  C
HETATM   68 C68  LIG A   1      22.523  -5.361  24.210  1.00  0.00    -0.060  C
HETATM   69 C69  LIG A   1      23.100  -5.531  26.650  1.00  0.00    -0.051  C
HETATM   70 C70  LIG A   1      23.378  -6.418  27.860  1.00  0.00    -0.065  C
HETATM   71 N71  LIG A   1      21.959  -9.304  26.026  1.00  0.00    -0.342  N
HETATM   72 C72  LIG A   1      21.963 -10.588  26.749  1.00  0.00     0.110  C
HETATM   73 C73  LIG A   1      22.394 -10.394  28.189  1.00  0.00     0.246  C
HETATM   74 O74  LIG A   1      23.275  -9.535  28.458  1.00  0.00    -0.272  O
HETATM   75 C75  LIG A   1      22.827 -11.669  26.032  1.00  0.00    -0.015  C
HETATM   76 C76  LIG A   1      22.190 -12.067  24.688  1.00  0.00    -0.060  C
HETATM   77 C77  LIG A   1      24.308 -11.241  25.856  1.00  0.00    -0.051  C
HETATM   78 C78  LIG A   1      25.212 -12.400  25.434  1.00  0.00    -0.065  C
HETATM   79 N79  LIG A   1      21.804 -11.155  29.259  1.00  0.00    -0.329  N
HETATM   80 C80  LIG A   1      21.381 -10.556  30.518  1.00  0.00     0.111  C
HETATM   81 C81  LIG A   1      22.523  -9.899  31.252  1.00  0.00     0.243  C
HETATM   82 O82  LIG A   1      23.614 -10.517  31.393  1.00  0.00    -0.273  O
HETATM   83 C83  LIG A   1      20.783 -11.700  31.339  1.00  0.00    -0.022  C
HETATM   84 C84  LIG A   1      20.482 -12.811  30.338  1.00  0.00    -0.033  C
HETATM   85 C85  LIG A   1      21.369 -12.539  29.130  1.00  0.00     0.021  C
HETATM   86 N86  LIG A   1      22.344  -8.593  31.825  1.00  0.00    -0.342  N
HETATM   87 C87  LIG A   1      23.254  -7.966  32.789  1.00  0.00     0.110  C
HETATM   88 C88  LIG A   1      24.588  -7.682  32.145  1.00  0.00     0.243  C
HETATM   89 O89  LIG A   1      25.510  -8.542  32.170  1.00  0.00    -0.273  O
HETATM   90 C90  LIG A   1      23.371  -8.792  34.102  1.00  0.00    -0.018  C
HETATM   91 C91  LIG A   1      21.984  -9.103  34.685  1.00  0.00    -0.060  C
HETATM   92 C92  LIG A   1      24.205  -8.039  35.154  1.00  0.00    -0.060  C
HETATM   93 N93  LIG A   1      24.814  -6.416  31.516  1.00  0.00    -0.343  N
HETATM   94 C94  LIG A   1      26.063  -5.683  31.737  1.00  0.00     0.108  C
HETATM   95 C95  LIG A   1      26.091  -5.155  33.151  1.00  0.00     0.243  C
HETATM   96 O96  LIG A   1      27.154  -5.242  33.824  1.00  0.00    -0.273  O
HETATM   97 C97  LIG A   1      26.192  -4.529  30.724  1.00  0.00    -0.024  C
HETATM   98 C98  LIG A   1      27.604  -3.927  30.706  1.00  0.00    -0.050  C
HETATM   99 C99  LIG A   1      27.710  -2.803  29.669  1.00  0.00    -0.041  C
HETATM  100 C100 LIG A   1      29.110  -2.186  29.673  1.00  0.00    -0.008  C
HETATM  101 N101 LIG A   1      29.226  -1.191  28.613  1.00  0.00    -0.330  N
HETATM  102 N102 LIG A   1      24.927  -4.530  33.717  1.00  0.00    -0.345  N
HETATM  103 C103 LIG A   1      24.928  -3.931  35.048  1.00  0.00     0.097  C
HETATM  104 C104 LIG A   1      25.684  -2.638  35.032  1.00  0.00     0.240  C
HETATM  105 O105 LIG A   1      26.561  -2.419  35.910  1.00  0.00    -0.273  O
HETATM  106 N106 LIG A   1      25.383  -1.644  34.041  1.00  0.00    -0.342  N
HETATM  107 C107 LIG A   1      26.152  -0.402  33.912  1.00  0.00     0.112  C
HETATM  108 C108 LIG A   1      25.375   0.599  33.093  1.00  0.00     0.243  C
HETATM  109 O109 LIG A   1      25.049   1.701  33.616  1.00  0.00    -0.273  O
HETATM  110 C110 LIG A   1      27.533  -0.697  33.291  1.00  0.00     0.002  C
HETATM  111 C111 LIG A   1      28.359   0.554  33.124  1.00  0.00    -0.045  C
HETATM  112 C112 LIG A   1      28.971   1.152  34.238  1.00  0.00    -0.059  C
HETATM  113 C113 LIG A   1      28.489   1.154  31.862  1.00  0.00    -0.059  C
HETATM  114 C114 LIG A   1      29.707   2.332  34.086  1.00  0.00    -0.062  C
HETATM  115 C115 LIG A   1      29.222   2.336  31.715  1.00  0.00    -0.062  C
HETATM  116 C116 LIG A   1      29.832   2.924  32.827  1.00  0.00    -0.062  C
HETATM  117 N117 LIG A   1      25.009   0.306  31.735  1.00  0.00    -0.340  N
HETATM  118 C118 LIG A   1      24.245   1.237  30.899  1.00  0.00     0.131  C
HETATM  119 C119 LIG A   1      23.136   0.533  30.146  1.00  0.00     0.245  C
HETATM  120 O120 LIG A   1      22.408   1.212  29.371  1.00  0.00    -0.273  O
HETATM  121 C121 LIG A   1      25.198   1.953  29.930  1.00  0.00     0.072  C
HETATM  122 O122 LIG A   1      25.635   1.086  28.917  1.00  0.00    -0.394  O
HETATM  123 N123 LIG A   1      22.877  -0.873  30.316  1.00  0.00    -0.342  N
HETATM  124 C124 LIG A   1      22.078  -1.656  29.360  1.00  0.00     0.109  C
HETATM  125 C125 LIG A   1      22.010  -3.102  29.790  1.00  0.00     0.243  C
HETATM  126 O126 LIG A   1      23.074  -3.704  30.090  1.00  0.00    -0.273  O
HETATM  127 C127 LIG A   1      22.635  -1.540  27.922  1.00  0.00    -0.015  C
HETATM  128 C128 LIG A   1      24.129  -1.898  27.791  1.00  0.00    -0.005  C
HETATM  129 S129 LIG A   1      24.897  -1.013  26.384  1.00  0.00    -0.165  S
HETATM  130 C130 LIG A   1      24.194  -2.064  25.075  1.00  0.00    -0.018  C
HETATM  131 N131 LIG A   1      20.754  -3.798  29.848  1.00  0.00    -0.341  N
HETATM  132 C132 LIG A   1      20.594  -5.037  30.621  1.00  0.00     0.127  C
HETATM  133 C133 LIG A   1      19.567  -5.940  29.993  1.00  0.00     0.326  C
HETATM  134 O134 LIG A   1      19.745  -7.186  29.986  1.00  0.00    -0.250  O
HETATM  135 C135 LIG A   1      20.247  -4.712  32.088  1.00  0.00    -0.020  C
HETATM  136 C136 LIG A   1      18.843  -4.105  32.261  1.00  0.00    -0.033  C
HETATM  137 C137 LIG A   1      18.639  -3.557  33.674  1.00  0.00     0.018  C
HETATM  138 N138 LIG A   1      17.278  -3.045  33.836  1.00  0.00    -0.357  N
HETATM  139 C139 LIG A   1      16.891  -2.253  34.966  1.00  0.00     0.185  C
HETATM  140 N140 LIG A   1      17.742  -2.000  35.910  1.00  0.00    -0.270  N
HETATM  141 N141 LIG A   1      15.561  -1.732  35.041  1.00  0.00    -0.370  N
HETATM  142 O142 LIG A   1      18.387  -5.417  29.473  1.00  0.00    -0.480  O
ENDROOT
TORSDOF 0
                                                                                                                                                 
ENDMDL
