MODEL 1
REMARK VINA RESULT:    -7.261      0.000      0.000
REMARK INTER + INTRA:          -7.261
REMARK INTER:                  -7.261
REMARK INTRA:                   0.000
REMARK UNBOUND:                 0.000
ROOT
HETATM    1 N1   LIG A   1      32.524   6.884  30.078  1.00  0.00    -0.320  N
HETATM    2 C2   LIG A   1      31.166   6.575  29.619  1.00  0.00     0.088  C
HETATM    3 C3   LIG A   1      30.126   7.116  30.570  1.00  0.00     0.237  C
HETATM    4 O4   LIG A   1      30.361   7.158  31.810  1.00  0.00    -0.273  O
HETATM    5 C5   LIG A   1      30.982   5.060  29.444  1.00  0.00    -0.004  C
HETATM    6 C6   LIG A   1      31.904   4.511  28.388  1.00  0.00    -0.046  C
HETATM    7 C7   LIG A   1      31.510   4.508  27.039  1.00  0.00    -0.059  C
HETATM    8 C8   LIG A   1      33.185   4.046  28.732  1.00  0.00    -0.059  C
HETATM    9 C9   LIG A   1      32.379   4.031  26.051  1.00  0.00    -0.062  C
HETATM   10 C10  LIG A   1      34.052   3.573  27.742  1.00  0.00    -0.062  C
HETATM   11 C11  LIG A   1      33.650   3.565  26.403  1.00  0.00    -0.062  C
HETATM   12 N12  LIG A   1      28.847   7.528  30.067  1.00  0.00    -0.343  N
HETATM   13 C13  LIG A   1      27.833   8.145  30.929  1.00  0.00     0.110  C
HETATM   14 C14  LIG A   1      27.105   7.059  31.682  1.00  0.00     0.243  C
HETATM   15 O15  LIG A   1      26.706   6.032  31.071  1.00  0.00    -0.273  O
HETATM   16 C16  LIG A   1      26.852   9.017  30.101  1.00  0.00    -0.018  C
HETATM   17 C17  LIG A   1      25.798   9.687  31.000  1.00  0.00    -0.060  C
HETATM   18 C18  LIG A   1      27.608  10.103  29.316  1.00  0.00    -0.060  C
HETATM   19 N19  LIG A   1      26.831   7.220  33.082  1.00  0.00    -0.342  N
HETATM   20 C20  LIG A   1      26.447   6.097  33.948  1.00  0.00     0.116  C
HETATM   21 C21  LIG A   1      25.022   5.674  33.685  1.00  0.00     0.243  C
HETATM   22 O22  LIG A   1      24.267   6.393  32.974  1.00  0.00    -0.273  O
HETATM   23 C23  LIG A   1      26.622   6.475  35.431  1.00  0.00     0.056  C
HETATM   24 C24  LIG A   1      28.066   6.736  35.756  1.00  0.00     0.220  C
HETATM   25 O25  LIG A   1      28.862   5.767  35.880  1.00  0.00    -0.275  O
HETATM   26 N26  LIG A   1      28.551   8.071  35.894  1.00  0.00    -0.370  N
HETATM   27 N27  LIG A   1      24.524   4.454  34.259  1.00  0.00    -0.343  N
HETATM   28 C28  LIG A   1      23.216   3.894  33.896  1.00  0.00     0.108  C
HETATM   29 C29  LIG A   1      22.112   4.814  34.363  1.00  0.00     0.243  C
HETATM   30 O30  LIG A   1      22.206   5.341  35.505  1.00  0.00    -0.273  O
HETATM   31 C31  LIG A   1      23.024   2.498  34.530  1.00  0.00    -0.024  C
HETATM   32 C32  LIG A   1      23.910   1.442  33.858  1.00  0.00    -0.050  C
HETATM   33 C33  LIG A   1      23.821   0.085  34.562  1.00  0.00    -0.041  C
HETATM   34 C34  LIG A   1      24.731  -0.942  33.877  1.00  0.00    -0.008  C
HETATM   35 N35  LIG A   1      24.792  -2.171  34.663  1.00  0.00    -0.330  N
HETATM   36 N36  LIG A   1      20.949   5.106  33.565  1.00  0.00    -0.343  N
HETATM   37 C37  LIG A   1      20.542   4.388  32.352  1.00  0.00     0.108  C
HETATM   38 C38  LIG A   1      20.636   5.313  31.167  1.00  0.00     0.243  C
HETATM   39 O39  LIG A   1      19.769   6.212  30.992  1.00  0.00    -0.273  O
HETATM   40 C40  LIG A   1      19.104   3.851  32.502  1.00  0.00    -0.021  C
HETATM   41 C41  LIG A   1      18.997   2.690  33.519  1.00  0.00    -0.045  C
HETATM   42 C42  LIG A   1      17.544   2.533  33.984  1.00  0.00    -0.063  C
HETATM   43 C43  LIG A   1      19.497   1.365  32.922  1.00  0.00    -0.063  C
HETATM   44 N44  LIG A   1      21.709   5.172  30.232  1.00  0.00    -0.342  N
HETATM   45 C45  LIG A   1      21.426   5.031  28.800  1.00  0.00     0.116  C
HETATM   46 C46  LIG A   1      21.090   3.596  28.491  1.00  0.00     0.243  C
HETATM   47 O47  LIG A   1      21.441   2.688  29.291  1.00  0.00    -0.273  O
HETATM   48 C48  LIG A   1      22.634   5.486  27.965  1.00  0.00     0.056  C
HETATM   49 C49  LIG A   1      22.837   6.967  28.087  1.00  0.00     0.220  C
HETATM   50 O50  LIG A   1      22.292   7.744  27.258  1.00  0.00    -0.275  O
HETATM   51 N51  LIG A   1      23.593   7.508  29.169  1.00  0.00    -0.370  N
HETATM   52 N52  LIG A   1      20.385   3.261  27.286  1.00  0.00    -0.343  N
HETATM   53 C53  LIG A   1      19.972   1.889  26.977  1.00  0.00     0.108  C
HETATM   54 C54  LIG A   1      20.375   1.526  25.572  1.00  0.00     0.243  C
HETATM   55 O55  LIG A   1      20.044   2.273  24.611  1.00  0.00    -0.273  O
HETATM   56 C56  LIG A   1      18.454   1.723  27.168  1.00  0.00    -0.022  C
HETATM   57 C57  LIG A   1      18.057   1.763  28.654  1.00  0.00    -0.033  C
HETATM   58 C58  LIG A   1      16.578   1.404  28.837  1.00  0.00     0.018  C
HETATM   59 N59  LIG A   1      16.266   1.184  30.250  1.00  0.00    -0.357  N
HETATM   60 C60  LIG A   1      16.568  -0.045  30.929  1.00  0.00     0.185  C
HETATM   61 N61  LIG A   1      17.269  -0.964  30.342  1.00  0.00    -0.270  N
HETATM   62 N62  LIG A   1      16.090  -0.256  32.260  1.00  0.00    -0.370  N
HETATM   63 N63  LIG A   1      21.096   0.307  25.331  1.00  0.00    -0.342  N
HETATM   64 C64  LIG A   1      21.598  -0.101  24.013  1.00  0.00     0.110  C
HETATM   65 C65  LIG A   1      21.349  -1.581  23.786  1.00  0.00     0.243  C
HETATM   66 O66  LIG A   1      20.690  -2.240  24.635  1.00  0.00    -0.273  O
HETATM   67 C67  LIG A   1      23.100   0.302  23.850  1.00  0.00    -0.015  C
HETATM   68 C68  LIG A   1      23.210   1.803  23.539  1.00  0.00    -0.060  C
HETATM   69 C69  LIG A   1      23.999  -0.027  25.071  1.00  0.00    -0.051  C
HETATM   70 C70  LIG A   1      24.158  -1.521  25.334  1.00  0.00    -0.065  C
HETATM   71 N71  LIG A   1      21.789  -2.224  22.577  1.00  0.00    -0.342  N
HETATM   72 C72  LIG A   1      21.520  -3.649  22.310  1.00  0.00     0.110  C
HETATM   73 C73  LIG A   1      22.154  -4.525  23.372  1.00  0.00     0.246  C
HETATM   74 O74  LIG A   1      23.264  -4.191  23.865  1.00  0.00    -0.272  O
HETATM   75 C75  LIG A   1      21.960  -4.076  20.877  1.00  0.00    -0.015  C
HETATM   76 C76  LIG A   1      21.085  -3.386  19.815  1.00  0.00    -0.060  C
HETATM   77 C77  LIG A   1      23.471  -3.839  20.612  1.00  0.00    -0.051  C
HETATM   78 C78  LIG A   1      23.961  -4.526  19.336  1.00  0.00    -0.065  C
HETATM   79 N79  LIG A   1      21.505  -5.719  23.846  1.00  0.00    -0.329  N
HETATM   80 C80  LIG A   1      21.416  -6.066  25.259  1.00  0.00     0.111  C
HETATM   81 C81  LIG A   1      22.774  -6.224  25.897  1.00  0.00     0.243  C
HETATM   82 O82  LIG A   1      23.659  -6.915  25.321  1.00  0.00    -0.273  O
HETATM   83 C83  LIG A   1      20.624  -7.373  25.314  1.00  0.00    -0.022  C
HETATM   84 C84  LIG A   1      19.911  -7.479  23.969  1.00  0.00    -0.033  C
HETATM   85 C85  LIG A   1      20.691  -6.590  23.010  1.00  0.00     0.021  C
HETATM   86 N86  LIG A   1      23.033  -5.627  27.178  1.00  0.00    -0.342  N
HETATM   87 C87  LIG A   1      24.188  -5.930  28.029  1.00  0.00     0.110  C
HETATM   88 C88  LIG A   1      25.463  -5.467  27.370  1.00  0.00     0.243  C
HETATM   89 O89  LIG A   1      26.106  -6.236  26.605  1.00  0.00    -0.273  O
HETATM   90 C90  LIG A   1      24.223  -7.427  28.450  1.00  0.00    -0.018  C
HETATM   91 C91  LIG A   1      22.882  -7.863  29.062  1.00  0.00    -0.060  C
HETATM   92 C92  LIG A   1      25.351  -7.688  29.465  1.00  0.00    -0.060  C
HETATM   93 N93  LIG A   1      25.957  -4.150  27.634  1.00  0.00    -0.343  N
HETATM   94 C94  LIG A   1      27.377  -3.925  27.913  1.00  0.00     0.108  C
HETATM   95 C95  LIG A   1      27.716  -4.485  29.272  1.00  0.00     0.243  C
HETATM   96 O96  LIG A   1      28.784  -5.138  29.424  1.00  0.00    -0.273  O
HETATM   97 C97  LIG A   1      27.703  -2.420  27.849  1.00  0.00    -0.024  C
HETATM   98 C98  LIG A   1      29.213  -2.153  27.827  1.00  0.00    -0.050  C
HETATM   99 C99  LIG A   1      29.505  -0.650  27.734  1.00  0.00    -0.041  C
HETATM  100 C100 LIG A   1      31.012  -0.385  27.740  1.00  0.00    -0.008  C
HETATM  101 N101 LIG A   1      31.275   1.037  27.547  1.00  0.00    -0.330  N
HETATM  102 N102 LIG A   1      26.846  -4.253  30.392  1.00  0.00    -0.345  N
HETATM  103 C103 LIG A   1      27.170  -4.703  31.742  1.00  0.00     0.097  C
HETATM  104 C104 LIG A   1      28.247  -3.844  32.329  1.00  0.00     0.240  C
HETATM  105 O105 LIG A   1      29.248  -4.385  32.872  1.00  0.00    -0.273  O
HETATM  106 N106 LIG A   1      28.121  -2.414  32.299  1.00  0.00    -0.342  N
HETATM  107 C107 LIG A   1      29.184  -1.520  32.768  1.00  0.00     0.112  C
HETATM  108 C108 LIG A   1      28.625  -0.137  32.998  1.00  0.00     0.243  C
HETATM  109 O109 LIG A   1      28.682   0.364  34.156  1.00  0.00    -0.273  O
HETATM  110 C110 LIG A   1      30.346  -1.502  31.753  1.00  0.00     0.002  C
HETATM  111 C111 LIG A   1      31.462  -0.583  32.183  1.00  0.00    -0.045  C
HETATM  112 C112 LIG A   1      32.342  -0.969  33.207  1.00  0.00    -0.059  C
HETATM  113 C113 LIG A   1      31.605   0.683  31.593  1.00  0.00    -0.059  C
HETATM  114 C114 LIG A   1      33.354  -0.100  33.629  1.00  0.00    -0.062  C
HETATM  115 C115 LIG A   1      32.614   1.550  32.020  1.00  0.00    -0.062  C
HETATM  116 C116 LIG A   1      33.490   1.158  33.037  1.00  0.00    -0.062  C
HETATM  117 N117 LIG A   1      28.037   0.603  31.917  1.00  0.00    -0.340  N
HETATM  118 C118 LIG A   1      27.469   1.944  32.088  1.00  0.00     0.131  C
HETATM  119 C119 LIG A   1      26.127   2.077  31.398  1.00  0.00     0.245  C
HETATM  120 O120 LIG A   1      25.532   3.188  31.448  1.00  0.00    -0.273  O
HETATM  121 C121 LIG A   1      28.463   2.990  31.561  1.00  0.00     0.072  C
HETATM  122 O122 LIG A   1      28.520   2.974  30.160  1.00  0.00    -0.394  O
HETATM  123 N123 LIG A   1      25.510   0.968  30.720  1.00  0.00    -0.342  N
HETATM  124 C124 LIG A   1      24.419   1.138  29.747  1.00  0.00     0.109  C
HETATM  125 C125 LIG A   1      24.001  -0.200  29.184  1.00  0.00     0.243  C
HETATM  126 O126 LIG A   1      24.884  -0.982  28.742  1.00  0.00    -0.273  O
HETATM  127 C127 LIG A   1      24.813   2.110  28.611  1.00  0.00    -0.015  C
HETATM  128 C128 LIG A   1      26.123   1.738  27.887  1.00  0.00    -0.005  C
HETATM  129 S129 LIG A   1      26.937   3.225  27.194  1.00  0.00    -0.165  S
HETATM  130 C130 LIG A   1      25.820   3.421  25.769  1.00  0.00    -0.018  C
HETATM  131 N131 LIG A   1      22.618  -0.584  29.135  1.00  0.00    -0.341  N
HETATM  132 C132 LIG A   1      22.212  -1.987  28.977  1.00  0.00     0.127  C
HETATM  133 C133 LIG A   1      20.908  -2.093  28.233  1.00  0.00     0.326  C
HETATM  134 O134 LIG A   1      20.731  -3.025  27.406  1.00  0.00    -0.250  O
HETATM  135 C135 LIG A   1      22.143  -2.682  30.351  1.00  0.00    -0.020  C
HETATM  136 C136 LIG A   1      20.993  -2.168  31.237  1.00  0.00    -0.033  C
HETATM  137 C137 LIG A   1      21.116  -2.683  32.671  1.00  0.00     0.018  C
HETATM  138 N138 LIG A   1      19.980  -2.237  33.478  1.00  0.00    -0.357  N
HETATM  139 C139 LIG A   1      19.963  -2.361  34.906  1.00  0.00     0.185  C
HETATM  140 N140 LIG A   1      20.955  -2.918  35.526  1.00  0.00    -0.270  N
HETATM  141 N141 LIG A   1      18.849  -1.854  35.645  1.00  0.00    -0.370  N
HETATM  142 O142 LIG A   1      19.868  -1.208  28.496  1.00  0.00    -0.480  O
ENDROOT
TORSDOF 0
                                                                                                                                                 
ENDMDL
MODEL 2
REMARK VINA RESULT:    -6.789      3.081      5.604
REMARK INTER + INTRA:          -6.789
REMARK INTER:                  -6.789
REMARK INTRA:                   0.000
REMARK UNBOUND:                 0.000
ROOT
HETATM    1 N1   LIG A   1      29.037   4.964  26.744  1.00  0.00    -0.320  N
HETATM    2 C2   LIG A   1      27.896   4.089  26.450  1.00  0.00     0.088  C
HETATM    3 C3   LIG A   1      26.584   4.802  26.669  1.00  0.00     0.237  C
HETATM    4 O4   LIG A   1      26.476   5.666  27.584  1.00  0.00    -0.273  O
HETATM    5 C5   LIG A   1      27.953   2.815  27.307  1.00  0.00    -0.004  C
HETATM    6 C6   LIG A   1      29.181   2.000  27.002  1.00  0.00    -0.046  C
HETATM    7 C7   LIG A   1      29.161   1.054  25.963  1.00  0.00    -0.059  C
HETATM    8 C8   LIG A   1      30.373   2.212  27.717  1.00  0.00    -0.059  C
HETATM    9 C9   LIG A   1      30.312   0.321  25.654  1.00  0.00    -0.062  C
HETATM   10 C10  LIG A   1      31.522   1.479  27.404  1.00  0.00    -0.062  C
HETATM   11 C11  LIG A   1      31.492   0.534  26.374  1.00  0.00    -0.062  C
HETATM   12 N12  LIG A   1      25.442   4.453  25.873  1.00  0.00    -0.343  N
HETATM   13 C13  LIG A   1      24.169   5.173  25.979  1.00  0.00     0.110  C
HETATM   14 C14  LIG A   1      23.407   4.648  27.170  1.00  0.00     0.243  C
HETATM   15 O15  LIG A   1      23.313   3.405  27.354  1.00  0.00    -0.273  O
HETATM   16 C16  LIG A   1      23.342   5.040  24.672  1.00  0.00    -0.018  C
HETATM   17 C17  LIG A   1      22.014   5.812  24.764  1.00  0.00    -0.060  C
HETATM   18 C18  LIG A   1      24.140   5.554  23.460  1.00  0.00    -0.060  C
HETATM   19 N19  LIG A   1      22.756   5.563  28.063  1.00  0.00    -0.342  N
HETATM   20 C20  LIG A   1      22.297   5.171  29.403  1.00  0.00     0.116  C
HETATM   21 C21  LIG A   1      21.055   4.317  29.321  1.00  0.00     0.243  C
HETATM   22 O22  LIG A   1      20.433   4.204  28.230  1.00  0.00    -0.273  O
HETATM   23 C23  LIG A   1      22.027   6.419  30.265  1.00  0.00     0.056  C
HETATM   24 C24  LIG A   1      23.289   7.197  30.503  1.00  0.00     0.220  C
HETATM   25 O25  LIG A   1      24.137   6.772  31.333  1.00  0.00    -0.275  O
HETATM   26 N26  LIG A   1      23.553   8.396  29.774  1.00  0.00    -0.370  N
HETATM   27 N27  LIG A   1      20.577   3.643  30.496  1.00  0.00    -0.343  N
HETATM   28 C28  LIG A   1      19.491   2.656  30.447  1.00  0.00     0.108  C
HETATM   29 C29  LIG A   1      18.198   3.331  30.048  1.00  0.00     0.243  C
HETATM   30 O30  LIG A   1      17.921   4.453  30.552  1.00  0.00    -0.273  O
HETATM   31 C31  LIG A   1      19.311   1.971  31.819  1.00  0.00    -0.024  C
HETATM   32 C32  LIG A   1      20.465   1.010  32.131  1.00  0.00    -0.050  C
HETATM   33 C33  LIG A   1      20.360   0.425  33.542  1.00  0.00    -0.041  C
HETATM   34 C34  LIG A   1      21.538  -0.516  33.827  1.00  0.00    -0.008  C
HETATM   35 N35  LIG A   1      21.539  -0.916  35.231  1.00  0.00    -0.330  N
HETATM   36 N36  LIG A   1      17.260   2.740  29.128  1.00  0.00    -0.343  N
HETATM   37 C37  LIG A   1      17.279   1.348  28.662  1.00  0.00     0.108  C
HETATM   38 C38  LIG A   1      17.569   1.319  27.185  1.00  0.00     0.243  C
HETATM   39 O39  LIG A   1      16.675   1.641  26.356  1.00  0.00    -0.273  O
HETATM   40 C40  LIG A   1      15.930   0.663  28.960  1.00  0.00    -0.021  C
HETATM   41 C41  LIG A   1      15.701   0.412  30.470  1.00  0.00    -0.045  C
HETATM   42 C42  LIG A   1      14.208   0.199  30.745  1.00  0.00    -0.063  C
HETATM   43 C43  LIG A   1      16.500  -0.802  30.970  1.00  0.00    -0.063  C
HETATM   44 N44  LIG A   1      18.860   0.919  26.716  1.00  0.00    -0.342  N
HETATM   45 C45  LIG A   1      18.985  -0.150  25.720  1.00  0.00     0.116  C
HETATM   46 C46  LIG A   1      18.921  -1.488  26.406  1.00  0.00     0.243  C
HETATM   47 O47  LIG A   1      19.157  -1.567  27.642  1.00  0.00    -0.273  O
HETATM   48 C48  LIG A   1      20.305  -0.012  24.944  1.00  0.00     0.056  C
HETATM   49 C49  LIG A   1      20.285   1.209  24.074  1.00  0.00     0.220  C
HETATM   50 O50  LIG A   1      19.887   1.121  22.882  1.00  0.00    -0.275  O
HETATM   51 N51  LIG A   1      20.656   2.481  24.602  1.00  0.00    -0.370  N
HETATM   52 N52  LIG A   1      18.606  -2.672  25.657  1.00  0.00    -0.343  N
HETATM   53 C53  LIG A   1      18.461  -3.985  26.293  1.00  0.00     0.108  C
HETATM   54 C54  LIG A   1      19.263  -5.018  25.545  1.00  0.00     0.243  C
HETATM   55 O55  LIG A   1      19.108  -5.153  24.301  1.00  0.00    -0.273  O
HETATM   56 C56  LIG A   1      16.979  -4.392  26.364  1.00  0.00    -0.022  C
HETATM   57 C57  LIG A   1      16.202  -3.545  27.386  1.00  0.00    -0.033  C
HETATM   58 C58  LIG A   1      14.782  -4.090  27.585  1.00  0.00     0.018  C
HETATM   59 N59  LIG A   1      14.138  -3.457  28.737  1.00  0.00    -0.357  N
HETATM   60 C60  LIG A   1      14.398  -3.860  30.090  1.00  0.00     0.185  C
HETATM   61 N61  LIG A   1      15.337  -4.715  30.351  1.00  0.00    -0.270  N
HETATM   62 N62  LIG A   1      13.615  -3.316  31.156  1.00  0.00    -0.370  N
HETATM   63 N63  LIG A   1      20.166  -5.874  26.264  1.00  0.00    -0.342  N
HETATM   64 C64  LIG A   1      21.044  -6.860  25.622  1.00  0.00     0.110  C
HETATM   65 C65  LIG A   1      21.047  -8.158  26.409  1.00  0.00     0.243  C
HETATM   66 O66  LIG A   1      20.273  -8.291  27.395  1.00  0.00    -0.273  O
HETATM   67 C67  LIG A   1      22.475  -6.265  25.412  1.00  0.00    -0.015  C
HETATM   68 C68  LIG A   1      22.478  -5.323  24.198  1.00  0.00    -0.060  C
HETATM   69 C69  LIG A   1      23.052  -5.510  26.637  1.00  0.00    -0.051  C
HETATM   70 C70  LIG A   1      23.319  -6.404  27.844  1.00  0.00    -0.065  C
HETATM   71 N71  LIG A   1      21.866  -9.266  25.998  1.00  0.00    -0.342  N
HETATM   72 C72  LIG A   1      21.855 -10.553  26.716  1.00  0.00     0.110  C
HETATM   73 C73  LIG A   1      22.288 -10.370  28.157  1.00  0.00     0.246  C
HETATM   74 O74  LIG A   1      23.179  -9.522  28.430  1.00  0.00    -0.272  O
HETATM   75 C75  LIG A   1      22.707 -11.641  25.995  1.00  0.00    -0.015  C
HETATM   76 C76  LIG A   1      22.065 -12.027  24.650  1.00  0.00    -0.060  C
HETATM   77 C77  LIG A   1      24.193 -11.230  25.821  1.00  0.00    -0.051  C
HETATM   78 C78  LIG A   1      25.084 -12.398  25.395  1.00  0.00    -0.065  C
HETATM   79 N79  LIG A   1      21.689 -11.128  29.223  1.00  0.00    -0.329  N
HETATM   80 C80  LIG A   1      21.273 -10.529  30.486  1.00  0.00     0.111  C
HETATM   81 C81  LIG A   1      22.423  -9.888  31.222  1.00  0.00     0.243  C
HETATM   82 O82  LIG A   1      23.506 -10.519  31.361  1.00  0.00    -0.273  O
HETATM   83 C83  LIG A   1      20.661 -11.669  31.301  1.00  0.00    -0.022  C
HETATM   84 C84  LIG A   1      20.348 -12.773  30.296  1.00  0.00    -0.033  C
HETATM   85 C85  LIG A   1      21.238 -12.506  29.089  1.00  0.00     0.021  C
HETATM   86 N86  LIG A   1      22.259  -8.583  31.800  1.00  0.00    -0.342  N
HETATM   87 C87  LIG A   1      23.176  -7.970  32.767  1.00  0.00     0.110  C
HETATM   88 C88  LIG A   1      24.513  -7.699  32.124  1.00  0.00     0.243  C
HETATM   89 O89  LIG A   1      25.425  -8.570  32.146  1.00  0.00    -0.273  O
HETATM   90 C90  LIG A   1      23.282  -8.802  34.076  1.00  0.00    -0.018  C
HETATM   91 C91  LIG A   1      21.891  -9.100  34.658  1.00  0.00    -0.060  C
HETATM   92 C92  LIG A   1      24.125  -8.063  35.131  1.00  0.00    -0.060  C
HETATM   93 N93  LIG A   1      24.754  -6.433  31.500  1.00  0.00    -0.343  N
HETATM   94 C94  LIG A   1      26.012  -5.716  31.725  1.00  0.00     0.108  C
HETATM   95 C95  LIG A   1      26.045  -5.194  33.140  1.00  0.00     0.243  C
HETATM   96 O96  LIG A   1      27.107  -5.296  33.813  1.00  0.00    -0.273  O
HETATM   97 C97  LIG A   1      26.155  -4.559  30.716  1.00  0.00    -0.024  C
HETATM   98 C98  LIG A   1      27.573  -3.975  30.701  1.00  0.00    -0.050  C
HETATM   99 C99  LIG A   1      27.693  -2.848  29.667  1.00  0.00    -0.041  C
HETATM  100 C100 LIG A   1      29.100  -2.247  29.674  1.00  0.00    -0.008  C
HETATM  101 N101 LIG A   1      29.228  -1.250  28.618  1.00  0.00    -0.330  N
HETATM  102 N102 LIG A   1      24.889  -4.558  33.708  1.00  0.00    -0.345  N
HETATM  103 C103 LIG A   1      24.897  -3.964  35.041  1.00  0.00     0.097  C
HETATM  104 C104 LIG A   1      25.667  -2.680  35.031  1.00  0.00     0.240  C
HETATM  105 O105 LIG A   1      26.547  -2.475  35.910  1.00  0.00    -0.273  O
HETATM  106 N106 LIG A   1      25.379  -1.679  34.044  1.00  0.00    -0.342  N
HETATM  107 C107 LIG A   1      26.162  -0.445  33.920  1.00  0.00     0.112  C
HETATM  108 C108 LIG A   1      25.397   0.568  33.105  1.00  0.00     0.243  C
HETATM  109 O109 LIG A   1      25.084   1.672  33.632  1.00  0.00    -0.273  O
HETATM  110 C110 LIG A   1      27.539  -0.754  33.298  1.00  0.00     0.002  C
HETATM  111 C111 LIG A   1      28.380   0.488  33.136  1.00  0.00    -0.045  C
HETATM  112 C112 LIG A   1      28.999   1.074  34.252  1.00  0.00    -0.059  C
HETATM  113 C113 LIG A   1      28.518   1.092  31.876  1.00  0.00    -0.059  C
HETATM  114 C114 LIG A   1      29.750   2.246  34.106  1.00  0.00    -0.062  C
HETATM  115 C115 LIG A   1      29.264   2.265  31.734  1.00  0.00    -0.062  C
HETATM  116 C116 LIG A   1      29.881   2.841  32.848  1.00  0.00    -0.062  C
HETATM  117 N117 LIG A   1      25.029   0.285  31.746  1.00  0.00    -0.340  N
HETATM  118 C118 LIG A   1      24.276   1.228  30.913  1.00  0.00     0.131  C
HETATM  119 C119 LIG A   1      23.158   0.540  30.157  1.00  0.00     0.245  C
HETATM  120 O120 LIG A   1      22.439   1.231  29.384  1.00  0.00    -0.273  O
HETATM  121 C121 LIG A   1      25.238   1.936  29.947  1.00  0.00     0.072  C
HETATM  122 O122 LIG A   1      25.664   1.068  28.931  1.00  0.00    -0.394  O
HETATM  123 N123 LIG A   1      22.883  -0.863  30.321  1.00  0.00    -0.342  N
HETATM  124 C124 LIG A   1      22.075  -1.633  29.362  1.00  0.00     0.109  C
HETATM  125 C125 LIG A   1      21.989  -3.080  29.786  1.00  0.00     0.243  C
HETATM  126 O126 LIG A   1      23.046  -3.696  30.085  1.00  0.00    -0.273  O
HETATM  127 C127 LIG A   1      22.633  -1.518  27.924  1.00  0.00    -0.015  C
HETATM  128 C128 LIG A   1      24.123  -1.893  27.792  1.00  0.00    -0.005  C
HETATM  129 S129 LIG A   1      24.902  -1.012  26.389  1.00  0.00    -0.165  S
HETATM  130 C130 LIG A   1      24.187  -2.050  25.075  1.00  0.00    -0.018  C
HETATM  131 N131 LIG A   1      20.726  -3.761  29.841  1.00  0.00    -0.341  N
HETATM  132 C132 LIG A   1      20.551  -5.002  30.609  1.00  0.00     0.127  C
HETATM  133 C133 LIG A   1      19.513  -5.890  29.977  1.00  0.00     0.326  C
HETATM  134 O134 LIG A   1      19.677  -7.137  29.966  1.00  0.00    -0.250  O
HETATM  135 C135 LIG A   1      20.207  -4.678  32.078  1.00  0.00    -0.020  C
HETATM  136 C136 LIG A   1      18.811  -4.055  32.253  1.00  0.00    -0.033  C
HETATM  137 C137 LIG A   1      18.612  -3.510  33.668  1.00  0.00     0.018  C
HETATM  138 N138 LIG A   1      17.258  -2.983  33.832  1.00  0.00    -0.357  N
HETATM  139 C139 LIG A   1      16.879  -2.191  34.964  1.00  0.00     0.185  C
HETATM  140 N140 LIG A   1      17.733  -1.952  35.909  1.00  0.00    -0.270  N
HETATM  141 N141 LIG A   1      15.556  -1.655  35.041  1.00  0.00    -0.370  N
HETATM  142 O142 LIG A   1      18.340  -5.350  29.460  1.00  0.00    -0.480  O
ENDROOT
TORSDOF 0
                                                                                                                                                 
ENDMDL
MODEL 3
REMARK VINA RESULT:    -5.450      2.779      5.328
REMARK INTER + INTRA:          -5.450
REMARK INTER:                  -5.450
REMARK INTRA:                   0.000
REMARK UNBOUND:                 0.000
ROOT
HETATM    1 N1   LIG A   1      36.028  -1.080  30.107  1.00  0.00    -0.320  N
HETATM    2 C2   LIG A   1      34.896  -0.270  29.646  1.00  0.00     0.088  C
HETATM    3 C3   LIG A   1      34.654   0.909  30.558  1.00  0.00     0.237  C
HETATM    4 O4   LIG A   1      34.873   0.808  31.797  1.00  0.00    -0.273  O
HETATM    5 C5   LIG A   1      33.623  -1.124  29.541  1.00  0.00    -0.004  C
HETATM    6 C6   LIG A   1      33.779  -2.223  28.524  1.00  0.00    -0.046  C
HETATM    7 C7   LIG A   1      33.482  -1.981  27.172  1.00  0.00    -0.059  C
HETATM    8 C8   LIG A   1      34.271  -3.483  28.906  1.00  0.00    -0.059  C
HETATM    9 C9   LIG A   1      33.660  -2.990  26.219  1.00  0.00    -0.062  C
HETATM   10 C10  LIG A   1      34.451  -4.488  27.951  1.00  0.00    -0.062  C
HETATM   11 C11  LIG A   1      34.145  -4.242  26.608  1.00  0.00    -0.062  C
HETATM   12 N12  LIG A   1      34.118   2.126  30.020  1.00  0.00    -0.343  N
HETATM   13 C13  LIG A   1      33.948   3.332  30.839  1.00  0.00     0.110  C
HETATM   14 C14  LIG A   1      32.672   3.208  31.633  1.00  0.00     0.243  C
HETATM   15 O15  LIG A   1      31.617   2.816  31.066  1.00  0.00    -0.273  O
HETATM   16 C16  LIG A   1      33.947   4.609  29.958  1.00  0.00    -0.018  C
HETATM   17 C17  LIG A   1      33.793   5.881  30.811  1.00  0.00    -0.060  C
HETATM   18 C18  LIG A   1      35.241   4.711  29.132  1.00  0.00    -0.060  C
HETATM   19 N19  LIG A   1      32.655   3.576  33.020  1.00  0.00    -0.342  N
HETATM   20 C20  LIG A   1      31.577   3.171  33.933  1.00  0.00     0.116  C
HETATM   21 C21  LIG A   1      30.320   3.966  33.673  1.00  0.00     0.243  C
HETATM   22 O22  LIG A   1      30.353   4.977  32.920  1.00  0.00    -0.273  O
HETATM   23 C23  LIG A   1      32.019   3.345  35.399  1.00  0.00     0.056  C
HETATM   24 C24  LIG A   1      33.166   2.433  35.730  1.00  0.00     0.220  C
HETATM   25 O25  LIG A   1      32.955   1.204  35.910  1.00  0.00    -0.275  O
HETATM   26 N26  LIG A   1      34.499   2.940  35.810  1.00  0.00    -0.370  N
HETATM   27 N27  LIG A   1      29.087   3.573  34.298  1.00  0.00    -0.343  N
HETATM   28 C28  LIG A   1      27.800   4.185  33.946  1.00  0.00     0.108  C
HETATM   29 C29  LIG A   1      27.790   5.641  34.355  1.00  0.00     0.243  C
HETATM   30 O30  LIG A   1      28.282   5.958  35.471  1.00  0.00    -0.273  O
HETATM   31 C31  LIG A   1      26.635   3.448  34.642  1.00  0.00    -0.024  C
HETATM   32 C32  LIG A   1      26.393   2.062  34.032  1.00  0.00    -0.050  C
HETATM   33 C33  LIG A   1      25.326   1.275  34.799  1.00  0.00    -0.041  C
HETATM   34 C34  LIG A   1      25.122  -0.111  34.175  1.00  0.00    -0.008  C
HETATM   35 N35  LIG A   1      24.253  -0.925  35.019  1.00  0.00    -0.330  N
HETATM   36 N36  LIG A   1      27.231   6.680  33.529  1.00  0.00    -0.343  N
HETATM   37 C37  LIG A   1      26.388   6.472  32.346  1.00  0.00     0.108  C
HETATM   38 C38  LIG A   1      27.117   6.955  31.120  1.00  0.00     0.243  C
HETATM   39 O39  LIG A   1      27.228   8.190  30.892  1.00  0.00    -0.273  O
HETATM   40 C40  LIG A   1      25.048   7.219  32.503  1.00  0.00    -0.021  C
HETATM   41 C41  LIG A   1      24.126   6.586  33.573  1.00  0.00    -0.045  C
HETATM   42 C42  LIG A   1      23.073   7.604  34.027  1.00  0.00    -0.063  C
HETATM   43 C43  LIG A   1      23.432   5.320  33.046  1.00  0.00    -0.063  C
HETATM   44 N44  LIG A   1      27.684   6.011  30.206  1.00  0.00    -0.342  N
HETATM   45 C45  LIG A   1      27.353   6.076  28.779  1.00  0.00     0.116  C
HETATM   46 C46  LIG A   1      26.038   5.385  28.534  1.00  0.00     0.243  C
HETATM   47 O47  LIG A   1      25.601   4.560  29.381  1.00  0.00    -0.273  O
HETATM   48 C48  LIG A   1      28.462   5.423  27.938  1.00  0.00     0.056  C
HETATM   49 C49  LIG A   1      29.720   6.238  27.993  1.00  0.00     0.220  C
HETATM   50 O50  LIG A   1      29.930   7.123  27.121  1.00  0.00    -0.275  O
HETATM   51 N51  LIG A   1      30.652   6.060  29.057  1.00  0.00    -0.370  N
HETATM   52 N52  LIG A   1      25.291   5.653  27.337  1.00  0.00    -0.343  N
HETATM   53 C53  LIG A   1      23.973   5.060  27.089  1.00  0.00     0.108  C
HETATM   54 C54  LIG A   1      23.922   4.461  25.708  1.00  0.00     0.243  C
HETATM   55 O55  LIG A   1      24.246   5.160  24.709  1.00  0.00    -0.273  O
HETATM   56 C56  LIG A   1      22.864   6.110  27.269  1.00  0.00    -0.022  C
HETATM   57 C57  LIG A   1      22.677   6.498  28.746  1.00  0.00    -0.033  C
HETATM   58 C58  LIG A   1      21.444   7.393  28.927  1.00  0.00     0.018  C
HETATM   59 N59  LIG A   1      21.114   7.543  30.345  1.00  0.00    -0.357  N
HETATM   60 C60  LIG A   1      20.398   6.542  31.085  1.00  0.00     0.185  C
HETATM   61 N61  LIG A   1      20.143   5.389  30.552  1.00  0.00    -0.270  N
HETATM   62 N62  LIG A   1      19.964   6.821  32.418  1.00  0.00    -0.370  N
HETATM   63 N63  LIG A   1      23.462   3.112  25.535  1.00  0.00    -0.342  N
HETATM   64 C64  LIG A   1      23.444   2.412  24.244  1.00  0.00     0.110  C
HETATM   65 C65  LIG A   1      22.153   1.629  24.084  1.00  0.00     0.243  C
HETATM   66 O66  LIG A   1      21.248   1.734  24.955  1.00  0.00    -0.273  O
HETATM   67 C67  LIG A   1      24.723   1.529  24.081  1.00  0.00    -0.015  C
HETATM   68 C68  LIG A   1      25.924   2.410  23.701  1.00  0.00    -0.060  C
HETATM   69 C69  LIG A   1      25.093   0.683  25.327  1.00  0.00    -0.051  C
HETATM   70 C70  LIG A   1      24.073  -0.400  25.662  1.00  0.00    -0.065  C
HETATM   71 N71  LIG A   1      21.919   0.828  22.913  1.00  0.00    -0.342  N
HETATM   72 C72  LIG A   1      20.657   0.093  22.710  1.00  0.00     0.110  C
HETATM   73 C73  LIG A   1      20.436  -0.914  23.820  1.00  0.00     0.246  C
HETATM   74 O74  LIG A   1      21.426  -1.519  24.311  1.00  0.00    -0.272  O
HETATM   75 C75  LIG A   1      20.581  -0.576  21.305  1.00  0.00    -0.015  C
HETATM   76 C76  LIG A   1      20.503   0.493  20.200  1.00  0.00    -0.060  C
HETATM   77 C77  LIG A   1      21.737  -1.578  21.047  1.00  0.00    -0.051  C
HETATM   78 C78  LIG A   1      21.501  -2.449  19.812  1.00  0.00    -0.065  C
HETATM   79 N79  LIG A   1      19.121  -1.180  24.343  1.00  0.00    -0.329  N
HETATM   80 C80  LIG A   1      18.840  -1.281  25.769  1.00  0.00     0.111  C
HETATM   81 C81  LIG A   1      19.622  -2.388  26.431  1.00  0.00     0.243  C
HETATM   82 O82  LIG A   1      19.660  -3.531  25.899  1.00  0.00    -0.273  O
HETATM   83 C83  LIG A   1      17.334  -1.529  25.876  1.00  0.00    -0.022  C
HETATM   84 C84  LIG A   1      16.752  -1.112  24.529  1.00  0.00    -0.033  C
HETATM   85 C85  LIG A   1      17.907  -1.164  23.538  1.00  0.00     0.021  C
HETATM   86 N86  LIG A   1      20.279  -2.144  27.685  1.00  0.00    -0.342  N
HETATM   87 C87  LIG A   1      20.826  -3.183  28.564  1.00  0.00     0.110  C
HETATM   88 C88  LIG A   1      21.990  -3.875  27.900  1.00  0.00     0.243  C
HETATM   89 O89  LIG A   1      21.806  -4.894  27.180  1.00  0.00    -0.273  O
HETATM   90 C90  LIG A   1      19.727  -4.166  29.056  1.00  0.00    -0.018  C
HETATM   91 C91  LIG A   1      18.539  -3.408  29.671  1.00  0.00    -0.060  C
HETATM   92 C92  LIG A   1      20.292  -5.150  30.096  1.00  0.00    -0.060  C
HETATM   93 N93  LIG A   1      23.318  -3.381  28.107  1.00  0.00    -0.343  N
HETATM   94 C94  LIG A   1      24.422  -4.300  28.393  1.00  0.00     0.108  C
HETATM   95 C95  LIG A   1      24.256  -4.867  29.781  1.00  0.00     0.243  C
HETATM   96 O96  LIG A   1      24.462  -6.095  29.978  1.00  0.00    -0.273  O
HETATM   97 C97  LIG A   1      25.773  -3.570  28.262  1.00  0.00    -0.024  C
HETATM   98 C98  LIG A   1      26.959  -4.542  28.246  1.00  0.00    -0.050  C
HETATM   99 C99  LIG A   1      28.286  -3.789  28.086  1.00  0.00    -0.041  C
HETATM  100 C100 LIG A   1      29.470  -4.759  28.098  1.00  0.00    -0.008  C
HETATM  101 N101 LIG A   1      30.713  -4.041  27.842  1.00  0.00    -0.330  N
HETATM  102 N102 LIG A   1      23.896  -4.011  30.878  1.00  0.00    -0.345  N
HETATM  103 C103 LIG A   1      23.803  -4.494  32.252  1.00  0.00     0.097  C
HETATM  104 C104 LIG A   1      25.173  -4.728  32.811  1.00  0.00     0.240  C
HETATM  105 O105 LIG A   1      25.430  -5.817  33.392  1.00  0.00    -0.273  O
HETATM  106 N106 LIG A   1      26.173  -3.703  32.712  1.00  0.00    -0.342  N
HETATM  107 C107 LIG A   1      27.557  -3.908  33.151  1.00  0.00     0.112  C
HETATM  108 C108 LIG A   1      28.247  -2.575  33.308  1.00  0.00     0.243  C
HETATM  109 O109 LIG A   1      28.696  -2.246  34.441  1.00  0.00    -0.273  O
HETATM  110 C110 LIG A   1      28.299  -4.819  32.151  1.00  0.00     0.002  C
HETATM  111 C111 LIG A   1      29.735  -5.049  32.551  1.00  0.00    -0.045  C
HETATM  112 C112 LIG A   1      30.045  -5.926  33.604  1.00  0.00    -0.059  C
HETATM  113 C113 LIG A   1      30.772  -4.358  31.904  1.00  0.00    -0.059  C
HETATM  114 C114 LIG A   1      31.375  -6.111  33.996  1.00  0.00    -0.062  C
HETATM  115 C115 LIG A   1      32.099  -4.541  32.301  1.00  0.00    -0.062  C
HETATM  116 C116 LIG A   1      32.401  -5.419  33.347  1.00  0.00    -0.062  C
HETATM  117 N117 LIG A   1      28.394  -1.691  32.186  1.00  0.00    -0.340  N
HETATM  118 C118 LIG A   1      29.045  -0.381  32.286  1.00  0.00     0.131  C
HETATM  119 C119 LIG A   1      28.252   0.695  31.574  1.00  0.00     0.245  C
HETATM  120 O120 LIG A   1      28.707   1.871  31.563  1.00  0.00    -0.273  O
HETATM  121 C121 LIG A   1      30.471  -0.475  31.723  1.00  0.00     0.072  C
HETATM  122 O122 LIG A   1      30.457  -0.585  30.325  1.00  0.00    -0.394  O
HETATM  123 N123 LIG A   1      26.990   0.413  30.941  1.00  0.00    -0.342  N
HETATM  124 C124 LIG A   1      26.380   1.312  29.948  1.00  0.00     0.109  C
HETATM  125 C125 LIG A   1      25.079   0.735  29.443  1.00  0.00     0.243  C
HETATM  126 O126 LIG A   1      25.049  -0.461  29.050  1.00  0.00    -0.273  O
HETATM  127 C127 LIG A   1      27.342   1.600  28.772  1.00  0.00    -0.015  C
HETATM  128 C128 LIG A   1      27.895   0.336  28.083  1.00  0.00    -0.005  C
HETATM  129 S129 LIG A   1      29.532   0.658  27.331  1.00  0.00    -0.165  S
HETATM  130 C130 LIG A   1      28.914   1.574  25.884  1.00  0.00    -0.018  C
HETATM  131 N131 LIG A   1      23.885   1.532  29.395  1.00  0.00    -0.341  N
HETATM  132 C132 LIG A   1      22.552   0.921  29.298  1.00  0.00     0.127  C
HETATM  133 C133 LIG A   1      21.601   1.810  28.544  1.00  0.00     0.326  C
HETATM  134 O134 LIG A   1      20.756   1.304  27.760  1.00  0.00    -0.250  O
HETATM  135 C135 LIG A   1      22.019   0.576  30.704  1.00  0.00    -0.020  C
HETATM  136 C136 LIG A   1      21.683   1.818  31.549  1.00  0.00    -0.033  C
HETATM  137 C137 LIG A   1      21.413   1.448  33.008  1.00  0.00     0.018  C
HETATM  138 N138 LIG A   1      21.032   2.632  33.778  1.00  0.00    -0.357  N
HETATM  139 C139 LIG A   1      20.968   2.622  35.210  1.00  0.00     0.185  C
HETATM  140 N140 LIG A   1      21.210   1.533  35.868  1.00  0.00    -0.270  N
HETATM  141 N141 LIG A   1      20.645   3.826  35.910  1.00  0.00    -0.370  N
HETATM  142 O142 LIG A   1      21.601   3.185  28.752  1.00  0.00    -0.480  O
ENDROOT
TORSDOF 0
                                                                                                                                                 
ENDMDL
