MODEL 1
REMARK VINA RESULT:    -7.245      0.000      0.000
REMARK INTER + INTRA:          -7.245
REMARK INTER:                  -7.245
REMARK INTRA:                   0.000
REMARK UNBOUND:                 0.000
ROOT
HETATM    1 N1   LIG A   1      32.532   6.889  30.089  1.00  0.00    -0.320  N
HETATM    2 C2   LIG A   1      31.173   6.583  29.629  1.00  0.00     0.088  C
HETATM    3 C3   LIG A   1      30.134   7.126  30.580  1.00  0.00     0.237  C
HETATM    4 O4   LIG A   1      30.368   7.167  31.820  1.00  0.00    -0.273  O
HETATM    5 C5   LIG A   1      30.985   5.068  29.454  1.00  0.00    -0.004  C
HETATM    6 C6   LIG A   1      31.907   4.518  28.398  1.00  0.00    -0.046  C
HETATM    7 C7   LIG A   1      31.513   4.516  27.049  1.00  0.00    -0.059  C
HETATM    8 C8   LIG A   1      33.186   4.050  28.742  1.00  0.00    -0.059  C
HETATM    9 C9   LIG A   1      32.381   4.037  26.062  1.00  0.00    -0.062  C
HETATM   10 C10  LIG A   1      34.052   3.575  27.753  1.00  0.00    -0.062  C
HETATM   11 C11  LIG A   1      33.651   3.568  26.413  1.00  0.00    -0.062  C
HETATM   12 N12  LIG A   1      28.855   7.541  30.077  1.00  0.00    -0.343  N
HETATM   13 C13  LIG A   1      27.842   8.160  30.939  1.00  0.00     0.110  C
HETATM   14 C14  LIG A   1      27.112   7.077  31.691  1.00  0.00     0.243  C
HETATM   15 O15  LIG A   1      26.711   6.051  31.079  1.00  0.00    -0.273  O
HETATM   16 C16  LIG A   1      26.864   9.035  30.110  1.00  0.00    -0.018  C
HETATM   17 C17  LIG A   1      25.811   9.708  31.009  1.00  0.00    -0.060  C
HETATM   18 C18  LIG A   1      27.623  10.120  29.326  1.00  0.00    -0.060  C
HETATM   19 N19  LIG A   1      26.838   7.238  33.091  1.00  0.00    -0.342  N
HETATM   20 C20  LIG A   1      26.451   6.115  33.956  1.00  0.00     0.116  C
HETATM   21 C21  LIG A   1      25.025   5.696  33.693  1.00  0.00     0.243  C
HETATM   22 O22  LIG A   1      24.272   6.417  32.982  1.00  0.00    -0.273  O
HETATM   23 C23  LIG A   1      26.626   6.493  35.439  1.00  0.00     0.056  C
HETATM   24 C24  LIG A   1      28.070   6.750  35.765  1.00  0.00     0.220  C
HETATM   25 O25  LIG A   1      28.864   5.779  35.890  1.00  0.00    -0.275  O
HETATM   26 N26  LIG A   1      28.558   8.084  35.903  1.00  0.00    -0.370  N
HETATM   27 N27  LIG A   1      24.524   4.477  34.266  1.00  0.00    -0.343  N
HETATM   28 C28  LIG A   1      23.215   3.920  33.903  1.00  0.00     0.108  C
HETATM   29 C29  LIG A   1      22.112   4.843  34.369  1.00  0.00     0.243  C
HETATM   30 O30  LIG A   1      22.207   5.369  35.511  1.00  0.00    -0.273  O
HETATM   31 C31  LIG A   1      23.019   2.525  34.536  1.00  0.00    -0.024  C
HETATM   32 C32  LIG A   1      23.902   1.467  33.864  1.00  0.00    -0.050  C
HETATM   33 C33  LIG A   1      23.810   0.109  34.568  1.00  0.00    -0.041  C
HETATM   34 C34  LIG A   1      24.717  -0.919  33.883  1.00  0.00    -0.008  C
HETATM   35 N35  LIG A   1      24.775  -2.148  34.669  1.00  0.00    -0.330  N
HETATM   36 N36  LIG A   1      20.950   5.138  33.571  1.00  0.00    -0.343  N
HETATM   37 C37  LIG A   1      20.542   4.421  32.357  1.00  0.00     0.108  C
HETATM   38 C38  LIG A   1      20.639   5.346  31.173  1.00  0.00     0.243  C
HETATM   39 O39  LIG A   1      19.774   6.247  30.998  1.00  0.00    -0.273  O
HETATM   40 C40  LIG A   1      19.103   3.887  32.507  1.00  0.00    -0.021  C
HETATM   41 C41  LIG A   1      18.992   2.727  33.524  1.00  0.00    -0.045  C
HETATM   42 C42  LIG A   1      17.539   2.573  33.988  1.00  0.00    -0.063  C
HETATM   43 C43  LIG A   1      19.489   1.400  32.927  1.00  0.00    -0.063  C
HETATM   44 N44  LIG A   1      21.712   5.202  30.238  1.00  0.00    -0.342  N
HETATM   45 C45  LIG A   1      21.430   5.062  28.806  1.00  0.00     0.116  C
HETATM   46 C46  LIG A   1      21.090   3.629  28.497  1.00  0.00     0.243  C
HETATM   47 O47  LIG A   1      21.439   2.719  29.296  1.00  0.00    -0.273  O
HETATM   48 C48  LIG A   1      22.638   5.515  27.971  1.00  0.00     0.056  C
HETATM   49 C49  LIG A   1      22.845   6.995  28.094  1.00  0.00     0.220  C
HETATM   50 O50  LIG A   1      22.302   7.773  27.265  1.00  0.00    -0.275  O
HETATM   51 N51  LIG A   1      23.602   7.534  29.176  1.00  0.00    -0.370  N
HETATM   52 N52  LIG A   1      20.384   3.296  27.291  1.00  0.00    -0.343  N
HETATM   53 C53  LIG A   1      19.968   1.924  26.982  1.00  0.00     0.108  C
HETATM   54 C54  LIG A   1      20.371   1.561  25.577  1.00  0.00     0.243  C
HETATM   55 O55  LIG A   1      20.043   2.309  24.616  1.00  0.00    -0.273  O
HETATM   56 C56  LIG A   1      18.450   1.762  27.172  1.00  0.00    -0.022  C
HETATM   57 C57  LIG A   1      18.053   1.803  28.657  1.00  0.00    -0.033  C
HETATM   58 C58  LIG A   1      16.572   1.447  28.840  1.00  0.00     0.018  C
HETATM   59 N59  LIG A   1      16.259   1.227  30.252  1.00  0.00    -0.357  N
HETATM   60 C60  LIG A   1      16.558  -0.002  30.932  1.00  0.00     0.185  C
HETATM   61 N61  LIG A   1      17.258  -0.922  30.345  1.00  0.00    -0.270  N
HETATM   62 N62  LIG A   1      16.079  -0.213  32.262  1.00  0.00    -0.370  N
HETATM   63 N63  LIG A   1      21.090   0.340  25.336  1.00  0.00    -0.342  N
HETATM   64 C64  LIG A   1      21.591  -0.068  24.018  1.00  0.00     0.110  C
HETATM   65 C65  LIG A   1      21.338  -1.548  23.790  1.00  0.00     0.243  C
HETATM   66 O66  LIG A   1      20.678  -2.206  24.639  1.00  0.00    -0.273  O
HETATM   67 C67  LIG A   1      23.094   0.330  23.856  1.00  0.00    -0.015  C
HETATM   68 C68  LIG A   1      23.208   1.832  23.545  1.00  0.00    -0.060  C
HETATM   69 C69  LIG A   1      23.991  -0.001  25.077  1.00  0.00    -0.051  C
HETATM   70 C70  LIG A   1      24.148  -1.495  25.339  1.00  0.00    -0.065  C
HETATM   71 N71  LIG A   1      21.777  -2.192  22.582  1.00  0.00    -0.342  N
HETATM   72 C72  LIG A   1      21.506  -3.616  22.314  1.00  0.00     0.110  C
HETATM   73 C73  LIG A   1      22.137  -4.494  23.376  1.00  0.00     0.246  C
HETATM   74 O74  LIG A   1      23.248  -4.163  23.870  1.00  0.00    -0.272  O
HETATM   75 C75  LIG A   1      21.945  -4.044  20.882  1.00  0.00    -0.015  C
HETATM   76 C76  LIG A   1      21.072  -3.352  19.819  1.00  0.00    -0.060  C
HETATM   77 C77  LIG A   1      23.457  -3.810  20.617  1.00  0.00    -0.051  C
HETATM   78 C78  LIG A   1      23.946  -4.498  19.341  1.00  0.00    -0.065  C
HETATM   79 N79  LIG A   1      21.485  -5.686  23.850  1.00  0.00    -0.329  N
HETATM   80 C80  LIG A   1      21.394  -6.033  25.263  1.00  0.00     0.111  C
HETATM   81 C81  LIG A   1      22.751  -6.195  25.901  1.00  0.00     0.243  C
HETATM   82 O82  LIG A   1      23.635  -6.888  25.326  1.00  0.00    -0.273  O
HETATM   83 C83  LIG A   1      20.599  -7.338  25.317  1.00  0.00    -0.022  C
HETATM   84 C84  LIG A   1      19.887  -7.443  23.972  1.00  0.00    -0.033  C
HETATM   85 C85  LIG A   1      20.669  -6.555  23.013  1.00  0.00     0.021  C
HETATM   86 N86  LIG A   1      23.011  -5.599  27.182  1.00  0.00    -0.342  N
HETATM   87 C87  LIG A   1      24.165  -5.905  28.034  1.00  0.00     0.110  C
HETATM   88 C88  LIG A   1      25.442  -5.445  27.376  1.00  0.00     0.243  C
HETATM   89 O89  LIG A   1      26.083  -6.215  26.610  1.00  0.00    -0.273  O
HETATM   90 C90  LIG A   1      24.197  -7.402  28.454  1.00  0.00    -0.018  C
HETATM   91 C91  LIG A   1      22.855  -7.835  29.065  1.00  0.00    -0.060  C
HETATM   92 C92  LIG A   1      25.323  -7.666  29.469  1.00  0.00    -0.060  C
HETATM   93 N93  LIG A   1      25.939  -4.129  27.639  1.00  0.00    -0.343  N
HETATM   94 C94  LIG A   1      27.360  -3.907  27.919  1.00  0.00     0.108  C
HETATM   95 C95  LIG A   1      27.696  -4.469  29.278  1.00  0.00     0.243  C
HETATM   96 O96  LIG A   1      28.763  -5.124  29.431  1.00  0.00    -0.273  O
HETATM   97 C97  LIG A   1      27.689  -2.403  27.856  1.00  0.00    -0.024  C
HETATM   98 C98  LIG A   1      29.200  -2.140  27.835  1.00  0.00    -0.050  C
HETATM   99 C99  LIG A   1      29.495  -0.637  27.742  1.00  0.00    -0.041  C
HETATM  100 C100 LIG A   1      31.003  -0.376  27.749  1.00  0.00    -0.008  C
HETATM  101 N101 LIG A   1      31.270   1.045  27.557  1.00  0.00    -0.330  N
HETATM  102 N102 LIG A   1      26.827  -4.234  30.398  1.00  0.00    -0.345  N
HETATM  103 C103 LIG A   1      27.148  -4.685  31.748  1.00  0.00     0.097  C
HETATM  104 C104 LIG A   1      28.228  -3.829  32.336  1.00  0.00     0.240  C
HETATM  105 O105 LIG A   1      29.227  -4.373  32.879  1.00  0.00    -0.273  O
HETATM  106 N106 LIG A   1      28.105  -2.400  32.306  1.00  0.00    -0.342  N
HETATM  107 C107 LIG A   1      29.170  -1.507  32.775  1.00  0.00     0.112  C
HETATM  108 C108 LIG A   1      28.615  -0.123  33.006  1.00  0.00     0.243  C
HETATM  109 O109 LIG A   1      28.672   0.377  34.164  1.00  0.00    -0.273  O
HETATM  110 C110 LIG A   1      30.332  -1.493  31.762  1.00  0.00     0.002  C
HETATM  111 C111 LIG A   1      31.450  -0.576  32.192  1.00  0.00    -0.045  C
HETATM  112 C112 LIG A   1      32.329  -0.965  33.217  1.00  0.00    -0.059  C
HETATM  113 C113 LIG A   1      31.597   0.689  31.602  1.00  0.00    -0.059  C
HETATM  114 C114 LIG A   1      33.343  -0.098  33.639  1.00  0.00    -0.062  C
HETATM  115 C115 LIG A   1      32.608   1.554  32.030  1.00  0.00    -0.062  C
HETATM  116 C116 LIG A   1      33.482   1.160  33.048  1.00  0.00    -0.062  C
HETATM  117 N117 LIG A   1      28.028   0.618  31.925  1.00  0.00    -0.340  N
HETATM  118 C118 LIG A   1      27.463   1.961  32.096  1.00  0.00     0.131  C
HETATM  119 C119 LIG A   1      26.123   2.097  31.406  1.00  0.00     0.245  C
HETATM  120 O120 LIG A   1      25.530   3.209  31.455  1.00  0.00    -0.273  O
HETATM  121 C121 LIG A   1      28.460   3.005  31.570  1.00  0.00     0.072  C
HETATM  122 O122 LIG A   1      28.518   2.989  30.169  1.00  0.00    -0.394  O
HETATM  123 N123 LIG A   1      25.503   0.989  30.726  1.00  0.00    -0.342  N
HETATM  124 C124 LIG A   1      24.412   1.162  29.754  1.00  0.00     0.109  C
HETATM  125 C125 LIG A   1      23.992  -0.175  29.190  1.00  0.00     0.243  C
HETATM  126 O126 LIG A   1      24.873  -0.959  28.748  1.00  0.00    -0.273  O
HETATM  127 C127 LIG A   1      24.809   2.133  28.618  1.00  0.00    -0.015  C
HETATM  128 C128 LIG A   1      26.118   1.759  27.895  1.00  0.00    -0.005  C
HETATM  129 S129 LIG A   1      26.936   3.244  27.202  1.00  0.00    -0.165  S
HETATM  130 C130 LIG A   1      25.821   3.443  25.777  1.00  0.00    -0.018  C
HETATM  131 N131 LIG A   1      22.608  -0.555  29.140  1.00  0.00    -0.341  N
HETATM  132 C132 LIG A   1      22.198  -1.957  28.981  1.00  0.00     0.127  C
HETATM  133 C133 LIG A   1      20.894  -2.060  28.237  1.00  0.00     0.326  C
HETATM  134 O134 LIG A   1      20.716  -2.992  27.410  1.00  0.00    -0.250  O
HETATM  135 C135 LIG A   1      22.127  -2.653  30.356  1.00  0.00    -0.020  C
HETATM  136 C136 LIG A   1      20.979  -2.136  31.241  1.00  0.00    -0.033  C
HETATM  137 C137 LIG A   1      21.099  -2.652  32.675  1.00  0.00     0.018  C
HETATM  138 N138 LIG A   1      19.964  -2.203  33.482  1.00  0.00    -0.357  N
HETATM  139 C139 LIG A   1      19.946  -2.327  34.909  1.00  0.00     0.185  C
HETATM  140 N140 LIG A   1      20.937  -2.886  35.530  1.00  0.00    -0.270  N
HETATM  141 N141 LIG A   1      18.833  -1.818  35.648  1.00  0.00    -0.370  N
HETATM  142 O142 LIG A   1      19.856  -1.173  28.500  1.00  0.00    -0.480  O
ENDROOT
TORSDOF 0
                                                                                                                                                 
ENDMDL
