MODEL 1
REMARK VINA RESULT:     0.544      0.000      0.000
REMARK INTER + INTRA:           0.544
REMARK INTER:                   0.544
REMARK INTRA:                   0.000
REMARK UNBOUND:                 0.000
ROOT
HETATM    1 N1   LIG A   1     -28.598  -6.241  29.120  1.00  0.00    -0.320  N
HETATM    2 C2   LIG A   1     -27.737  -6.716  30.209  1.00  0.00     0.087  C
HETATM    3 C3   LIG A   1     -28.517  -7.585  31.167  1.00  0.00     0.237  C
HETATM    4 O4   LIG A   1     -27.909  -8.484  31.809  1.00  0.00    -0.273  O
HETATM    5 C5   LIG A   1     -27.054  -5.534  30.960  1.00  0.00    -0.020  C
HETATM    6 C6   LIG A   1     -25.956  -4.895  30.091  1.00  0.00    -0.061  C
HETATM    7 C7   LIG A   1     -28.082  -4.478  31.443  1.00  0.00    -0.052  C
HETATM    8 C8   LIG A   1     -27.465  -3.422  32.361  1.00  0.00    -0.065  C
HETATM    9 N9   LIG A   1     -29.926  -7.385  31.374  1.00  0.00    -0.341  N
HETATM   10 C10  LIG A   1     -30.749  -8.368  32.084  1.00  0.00     0.131  C
HETATM   11 C11  LIG A   1     -30.770  -9.662  31.315  1.00  0.00     0.245  C
HETATM   12 O12  LIG A   1     -30.638 -10.754  31.933  1.00  0.00    -0.273  O
HETATM   13 C13  LIG A   1     -32.177  -7.834  32.275  1.00  0.00     0.072  C
HETATM   14 O14  LIG A   1     -32.930  -8.706  33.077  1.00  0.00    -0.394  O
HETATM   15 N15  LIG A   1     -30.954  -9.654  29.891  1.00  0.00    -0.342  N
HETATM   16 C16  LIG A   1     -30.735 -10.846  29.069  1.00  0.00     0.108  C
HETATM   17 C17  LIG A   1     -29.251 -11.022  28.856  1.00  0.00     0.243  C
HETATM   18 O18  LIG A   1     -28.665 -10.377  27.944  1.00  0.00    -0.273  O
HETATM   19 C19  LIG A   1     -31.480 -10.719  27.720  1.00  0.00    -0.021  C
HETATM   20 C20  LIG A   1     -33.015 -10.574  27.861  1.00  0.00    -0.045  C
HETATM   21 C21  LIG A   1     -33.618 -10.048  26.551  1.00  0.00    -0.063  C
HETATM   22 C22  LIG A   1     -33.685 -11.900  28.244  1.00  0.00    -0.063  C
HETATM   23 N23  LIG A   1     -28.491 -11.841  29.756  1.00  0.00    -0.343  N
HETATM   24 C24  LIG A   1     -27.031 -11.737  29.871  1.00  0.00     0.105  C
HETATM   25 C25  LIG A   1     -26.348 -12.765  29.007  1.00  0.00     0.242  C
HETATM   26 O26  LIG A   1     -26.978 -13.798  28.653  1.00  0.00    -0.273  O
HETATM   27 C27  LIG A   1     -26.611 -11.924  31.330  1.00  0.00    -0.036  C
HETATM   28 N28  LIG A   1     -24.965 -12.586  28.645  1.00  0.00    -0.342  N
HETATM   29 C29  LIG A   1     -24.094 -13.618  28.056  1.00  0.00     0.110  C
HETATM   30 C30  LIG A   1     -24.806 -14.391  26.964  1.00  0.00     0.246  C
HETATM   31 O31  LIG A   1     -25.056 -15.618  27.109  1.00  0.00    -0.272  O
HETATM   32 C32  LIG A   1     -23.430 -14.511  29.150  1.00  0.00    -0.015  C
HETATM   33 C33  LIG A   1     -22.381 -13.699  29.932  1.00  0.00    -0.060  C
HETATM   34 C34  LIG A   1     -24.454 -15.153  30.121  1.00  0.00    -0.051  C
HETATM   35 C35  LIG A   1     -23.886 -16.359  30.869  1.00  0.00    -0.065  C
HETATM   36 N36  LIG A   1     -25.247 -13.723  25.773  1.00  0.00    -0.329  N
HETATM   37 C37  LIG A   1     -26.473 -14.071  25.069  1.00  0.00     0.111  C
HETATM   38 C38  LIG A   1     -26.294 -15.322  24.248  1.00  0.00     0.243  C
HETATM   39 O39  LIG A   1     -25.144 -15.818  24.093  1.00  0.00    -0.273  O
HETATM   40 C40  LIG A   1     -26.750 -12.869  24.166  1.00  0.00    -0.022  C
HETATM   41 C41  LIG A   1     -25.394 -12.204  23.967  1.00  0.00    -0.033  C
HETATM   42 C42  LIG A   1     -24.577 -12.570  25.197  1.00  0.00     0.021  C
HETATM   43 N43  LIG A   1     -27.429 -15.914  23.601  1.00  0.00    -0.343  N
HETATM   44 C44  LIG A   1     -27.308 -17.080  22.718  1.00  0.00     0.108  C
HETATM   45 C45  LIG A   1     -26.426 -16.792  21.529  1.00  0.00     0.243  C
HETATM   46 O46  LIG A   1     -26.203 -15.604  21.178  1.00  0.00    -0.273  O
HETATM   47 C47  LIG A   1     -28.691 -17.647  22.308  1.00  0.00    -0.021  C
HETATM   48 C48  LIG A   1     -29.436 -16.903  21.172  1.00  0.00    -0.045  C
HETATM   49 C49  LIG A   1     -30.702 -17.683  20.788  1.00  0.00    -0.063  C
HETATM   50 C50  LIG A   1     -29.811 -15.472  21.564  1.00  0.00    -0.063  C
HETATM   51 N51  LIG A   1     -25.885 -17.879  20.764  1.00  0.00    -0.343  N
HETATM   52 C52  LIG A   1     -24.450 -18.115  20.545  1.00  0.00     0.105  C
HETATM   53 C53  LIG A   1     -23.978 -19.235  21.437  1.00  0.00     0.243  C
HETATM   54 O54  LIG A   1     -23.480 -20.268  20.914  1.00  0.00    -0.273  O
HETATM   55 C55  LIG A   1     -23.584 -16.862  20.733  1.00  0.00    -0.036  C
HETATM   56 N56  LIG A   1     -24.101 -19.138  22.866  1.00  0.00    -0.340  N
HETATM   57 C57  LIG A   1     -23.885 -20.275  23.771  1.00  0.00     0.131  C
HETATM   58 C58  LIG A   1     -25.207 -20.814  24.288  1.00  0.00     0.245  C
HETATM   59 O59  LIG A   1     -25.212 -21.561  25.305  1.00  0.00    -0.273  O
HETATM   60 C60  LIG A   1     -22.961 -19.825  24.913  1.00  0.00     0.072  C
HETATM   61 O61  LIG A   1     -22.554 -20.927  25.678  1.00  0.00    -0.394  O
HETATM   62 N62  LIG A   1     -26.438 -20.562  23.584  1.00  0.00    -0.342  N
HETATM   63 C63  LIG A   1     -27.755 -21.064  23.996  1.00  0.00     0.108  C
HETATM   64 C64  LIG A   1     -28.037 -20.736  25.447  1.00  0.00     0.243  C
HETATM   65 O65  LIG A   1     -28.226 -21.664  26.281  1.00  0.00    -0.273  O
HETATM   66 C66  LIG A   1     -27.890 -22.572  23.686  1.00  0.00    -0.024  C
HETATM   67 C67  LIG A   1     -27.758 -22.899  22.182  1.00  0.00    -0.050  C
HETATM   68 C68  LIG A   1     -29.104 -23.097  21.459  1.00  0.00    -0.041  C
HETATM   69 C69  LIG A   1     -29.898 -21.799  21.257  1.00  0.00    -0.008  C
HETATM   70 N70  LIG A   1     -30.686 -21.478  22.444  1.00  0.00    -0.330  N
HETATM   71 N71  LIG A   1     -28.094 -19.363  25.871  1.00  0.00    -0.342  N
HETATM   72 C72  LIG A   1     -28.421 -18.961  27.244  1.00  0.00     0.110  C
HETATM   73 C73  LIG A   1     -29.709 -18.171  27.237  1.00  0.00     0.243  C
HETATM   74 O74  LIG A   1     -30.700 -18.621  27.874  1.00  0.00    -0.273  O
HETATM   75 C75  LIG A   1     -27.263 -18.146  27.889  1.00  0.00    -0.015  C
HETATM   76 C76  LIG A   1     -27.540 -17.887  29.381  1.00  0.00    -0.060  C
HETATM   77 C77  LIG A   1     -25.868 -18.791  27.687  1.00  0.00    -0.051  C
HETATM   78 C78  LIG A   1     -25.679 -20.141  28.385  1.00  0.00    -0.065  C
HETATM   79 N79  LIG A   1     -29.813 -16.919  26.535  1.00  0.00    -0.340  N
HETATM   80 C80  LIG A   1     -30.834 -15.926  26.881  1.00  0.00     0.131  C
HETATM   81 C81  LIG A   1     -31.334 -15.216  25.641  1.00  0.00     0.245  C
HETATM   82 O82  LIG A   1     -32.383 -15.644  25.086  1.00  0.00    -0.273  O
HETATM   83 C83  LIG A   1     -30.282 -14.960  27.941  1.00  0.00     0.072  C
HETATM   84 O84  LIG A   1     -31.259 -14.030  28.313  1.00  0.00    -0.394  O
HETATM   85 N85  LIG A   1     -30.646 -14.086  25.079  1.00  0.00    -0.345  N
HETATM   86 C86  LIG A   1     -31.338 -13.159  24.182  1.00  0.00     0.097  C
HETATM   87 C87  LIG A   1     -30.387 -12.158  23.591  1.00  0.00     0.240  C
HETATM   88 O88  LIG A   1     -29.674 -12.494  22.610  1.00  0.00    -0.273  O
HETATM   89 N89  LIG A   1     -30.296 -10.832  24.133  1.00  0.00    -0.342  N
HETATM   90 C90  LIG A   1     -29.509  -9.768  23.496  1.00  0.00     0.112  C
HETATM   91 C91  LIG A   1     -28.828  -8.921  24.542  1.00  0.00     0.243  C
HETATM   92 O92  LIG A   1     -29.472  -8.544  25.558  1.00  0.00    -0.273  O
HETATM   93 C93  LIG A   1     -30.416  -8.873  22.637  1.00  0.00     0.002  C
HETATM   94 C94  LIG A   1     -31.006  -9.624  21.473  1.00  0.00    -0.045  C
HETATM   95 C95  LIG A   1     -32.295 -10.177  21.562  1.00  0.00    -0.059  C
HETATM   96 C96  LIG A   1     -30.262  -9.796  20.294  1.00  0.00    -0.059  C
HETATM   97 C97  LIG A   1     -32.840 -10.867  20.475  1.00  0.00    -0.062  C
HETATM   98 C98  LIG A   1     -30.817 -10.470  19.204  1.00  0.00    -0.062  C
HETATM   99 C99  LIG A   1     -32.106 -11.004  19.293  1.00  0.00    -0.062  C
HETATM  100 N100 LIG A   1     -27.490  -8.448  24.320  1.00  0.00    -0.340  N
HETATM  101 C101 LIG A   1     -26.873  -7.409  25.157  1.00  0.00     0.134  C
HETATM  102 C102 LIG A   1     -25.727  -6.735  24.434  1.00  0.00     0.245  C
HETATM  103 O103 LIG A   1     -25.646  -5.476  24.470  1.00  0.00    -0.273  O
HETATM  104 C104 LIG A   1     -26.469  -7.951  26.554  1.00  0.00     0.080  C
HETATM  105 O105 LIG A   1     -25.789  -6.970  27.299  1.00  0.00    -0.391  O
HETATM  106 C106 LIG A   1     -25.669  -9.259  26.515  1.00  0.00    -0.036  C
HETATM  107 N107 LIG A   1     -24.726  -7.492  23.733  1.00  0.00    -0.342  N
HETATM  108 C108 LIG A   1     -23.708  -6.835  22.908  1.00  0.00     0.108  C
HETATM  109 C109 LIG A   1     -24.364  -6.233  21.692  1.00  0.00     0.243  C
HETATM  110 O110 LIG A   1     -24.198  -5.007  21.443  1.00  0.00    -0.273  O
HETATM  111 C111 LIG A   1     -22.617  -7.847  22.490  1.00  0.00    -0.021  C
HETATM  112 C112 LIG A   1     -21.400  -7.187  21.791  1.00  0.00    -0.045  C
HETATM  113 C113 LIG A   1     -20.450  -6.546  22.813  1.00  0.00    -0.063  C
HETATM  114 C114 LIG A   1     -20.641  -8.219  20.949  1.00  0.00    -0.063  C
HETATM  115 N115 LIG A   1     -25.151  -7.050  20.812  1.00  0.00    -0.343  N
HETATM  116 C116 LIG A   1     -25.544  -6.595  19.473  1.00  0.00     0.105  C
HETATM  117 C117 LIG A   1     -26.665  -7.432  18.905  1.00  0.00     0.242  C
HETATM  118 O118 LIG A   1     -26.801  -8.636  19.254  1.00  0.00    -0.273  O
HETATM  119 C119 LIG A   1     -24.336  -6.632  18.535  1.00  0.00    -0.036  C
HETATM  120 N120 LIG A   1     -27.532  -6.874  17.907  1.00  0.00    -0.343  N
HETATM  121 C121 LIG A   1     -28.612  -7.647  17.281  1.00  0.00     0.108  C
HETATM  122 C122 LIG A   1     -28.063  -8.659  16.303  1.00  0.00     0.243  C
HETATM  123 O123 LIG A   1     -28.805  -9.609  15.937  1.00  0.00    -0.273  O
HETATM  124 C124 LIG A   1     -29.614  -6.717  16.565  1.00  0.00    -0.021  C
HETATM  125 C125 LIG A   1     -30.343  -5.735  17.517  1.00  0.00    -0.045  C
HETATM  126 C126 LIG A   1     -31.273  -6.466  18.500  1.00  0.00    -0.063  C
HETATM  127 C127 LIG A   1     -31.147  -4.719  16.697  1.00  0.00    -0.063  C
HETATM  128 N128 LIG A   1     -26.736  -8.536  15.764  1.00  0.00    -0.342  N
HETATM  129 C129 LIG A   1     -26.066  -9.631  15.050  1.00  0.00     0.110  C
HETATM  130 C130 LIG A   1     -24.660  -9.810  15.579  1.00  0.00     0.243  C
HETATM  131 O131 LIG A   1     -23.988  -8.798  15.913  1.00  0.00    -0.273  O
HETATM  132 C132 LIG A   1     -26.118  -9.392  13.517  1.00  0.00    -0.018  C
HETATM  133 C133 LIG A   1     -25.368  -8.125  13.074  1.00  0.00    -0.060  C
HETATM  134 C134 LIG A   1     -25.605 -10.610  12.734  1.00  0.00    -0.060  C
HETATM  135 N135 LIG A   1     -24.089 -11.130  15.677  1.00  0.00    -0.343  N
HETATM  136 C136 LIG A   1     -22.912 -11.486  16.484  1.00  0.00     0.108  C
HETATM  137 C137 LIG A   1     -23.226 -11.350  17.951  1.00  0.00     0.243  C
HETATM  138 O138 LIG A   1     -23.692 -10.264  18.388  1.00  0.00    -0.273  O
HETATM  139 C139 LIG A   1     -21.660 -10.681  16.064  1.00  0.00    -0.024  C
HETATM  140 C140 LIG A   1     -20.345 -11.248  16.638  1.00  0.00    -0.050  C
HETATM  141 C141 LIG A   1     -19.950 -10.586  17.968  1.00  0.00    -0.041  C
HETATM  142 C142 LIG A   1     -18.642 -11.169  18.508  1.00  0.00    -0.008  C
HETATM  143 N143 LIG A   1     -18.305 -10.549  19.785  1.00  0.00    -0.330  N
HETATM  144 N144 LIG A   1     -22.995 -12.452  18.848  1.00  0.00    -0.342  N
HETATM  145 C145 LIG A   1     -23.520 -12.500  20.220  1.00  0.00     0.116  C
HETATM  146 C146 LIG A   1     -25.013 -12.273  20.191  1.00  0.00     0.243  C
HETATM  147 O147 LIG A   1     -25.523 -11.253  20.733  1.00  0.00    -0.273  O
HETATM  148 C148 LIG A   1     -22.755 -11.515  21.134  1.00  0.00     0.056  C
HETATM  149 C149 LIG A   1     -21.405 -12.039  21.540  1.00  0.00     0.220  C
HETATM  150 O150 LIG A   1     -20.698 -12.685  20.721  1.00  0.00    -0.275  O
HETATM  151 N151 LIG A   1     -20.888 -11.752  22.840  1.00  0.00    -0.370  N
HETATM  152 N152 LIG A   1     -25.840 -13.195  19.469  1.00  0.00    -0.343  N
HETATM  153 C153 LIG A   1     -27.187 -12.834  19.014  1.00  0.00     0.105  C
HETATM  154 C154 LIG A   1     -27.990 -14.049  18.611  1.00  0.00     0.243  C
HETATM  155 O155 LIG A   1     -27.414 -15.134  18.320  1.00  0.00    -0.273  O
HETATM  156 C156 LIG A   1     -27.082 -11.883  17.823  1.00  0.00    -0.036  C
HETATM  157 N157 LIG A   1     -29.413 -13.935  18.467  1.00  0.00    -0.340  N
HETATM  158 C158 LIG A   1     -30.207 -14.930  17.738  1.00  0.00     0.131  C
HETATM  159 C159 LIG A   1     -29.825 -14.935  16.280  1.00  0.00     0.245  C
HETATM  160 O160 LIG A   1     -29.725 -16.037  15.673  1.00  0.00    -0.273  O
HETATM  161 C161 LIG A   1     -31.705 -14.635  17.889  1.00  0.00     0.072  C
HETATM  162 O162 LIG A   1     -32.456 -15.680  17.334  1.00  0.00    -0.394  O
HETATM  163 N163 LIG A   1     -29.621 -13.699  15.573  1.00  0.00    -0.339  N
HETATM  164 C164 LIG A   1     -29.280 -13.661  14.146  1.00  0.00     0.153  C
HETATM  165 C165 LIG A   1     -27.899 -14.225  13.951  1.00  0.00     0.328  C
HETATM  166 O166 LIG A   1     -27.708 -15.149  13.115  1.00  0.00    -0.250  O
HETATM  167 C167 LIG A   1     -29.365 -12.214  13.605  1.00  0.00     0.082  C
HETATM  168 O168 LIG A   1     -30.634 -11.687  13.897  1.00  0.00    -0.391  O
HETATM  169 C169 LIG A   1     -29.139 -12.159  12.089  1.00  0.00    -0.036  C
HETATM  170 O170 LIG A   1     -26.830 -13.722  14.684  1.00  0.00    -0.480  O
ENDROOT
TORSDOF 0
                                                                                                                                                                             
ENDMDL
