MODEL 1
REMARK VINA RESULT:     0.495      0.000      0.000
REMARK INTER + INTRA:           0.495
REMARK INTER:                   0.495
REMARK INTRA:                   0.000
REMARK UNBOUND:                 0.000
ROOT
HETATM    1 N1   LIG A   1     -28.674  -6.273  29.171  1.00  0.00    -0.320  N
HETATM    2 C2   LIG A   1     -27.807  -6.742  30.259  1.00  0.00     0.087  C
HETATM    3 C3   LIG A   1     -28.576  -7.626  31.211  1.00  0.00     0.237  C
HETATM    4 O4   LIG A   1     -27.957  -8.520  31.849  1.00  0.00    -0.273  O
HETATM    5 C5   LIG A   1     -27.141  -5.555  31.015  1.00  0.00    -0.020  C
HETATM    6 C6   LIG A   1     -26.051  -4.898  30.150  1.00  0.00    -0.061  C
HETATM    7 C7   LIG A   1     -28.183  -4.515  31.503  1.00  0.00    -0.052  C
HETATM    8 C8   LIG A   1     -27.581  -3.455  32.426  1.00  0.00    -0.065  C
HETATM    9 N9   LIG A   1     -29.988  -7.447  31.418  1.00  0.00    -0.341  N
HETATM   10 C10  LIG A   1     -30.799  -8.443  32.123  1.00  0.00     0.131  C
HETATM   11 C11  LIG A   1     -30.802  -9.734  31.348  1.00  0.00     0.245  C
HETATM   12 O12  LIG A   1     -30.656 -10.826  31.961  1.00  0.00    -0.273  O
HETATM   13 C13  LIG A   1     -32.234  -7.930  32.316  1.00  0.00     0.072  C
HETATM   14 O14  LIG A   1     -32.976  -8.815  33.113  1.00  0.00    -0.394  O
HETATM   15 N15  LIG A   1     -30.985  -9.721  29.924  1.00  0.00    -0.342  N
HETATM   16 C16  LIG A   1     -30.750 -10.906  29.096  1.00  0.00     0.108  C
HETATM   17 C17  LIG A   1     -29.264 -11.062  28.884  1.00  0.00     0.243  C
HETATM   18 O18  LIG A   1     -28.685 -10.405  27.975  1.00  0.00    -0.273  O
HETATM   19 C19  LIG A   1     -31.495 -10.783  27.747  1.00  0.00    -0.021  C
HETATM   20 C20  LIG A   1     -33.033 -10.659  27.888  1.00  0.00    -0.045  C
HETATM   21 C21  LIG A   1     -33.641 -10.134  26.579  1.00  0.00    -0.063  C
HETATM   22 C22  LIG A   1     -33.685 -11.996  28.263  1.00  0.00    -0.063  C
HETATM   23 N23  LIG A   1     -28.493 -11.875  29.780  1.00  0.00    -0.343  N
HETATM   24 C24  LIG A   1     -27.035 -11.752  29.896  1.00  0.00     0.105  C
HETATM   25 C25  LIG A   1     -26.338 -12.766  29.028  1.00  0.00     0.242  C
HETATM   26 O26  LIG A   1     -26.954 -13.807  28.669  1.00  0.00    -0.273  O
HETATM   27 C27  LIG A   1     -26.614 -11.941  31.354  1.00  0.00    -0.036  C
HETATM   28 N28  LIG A   1     -24.957 -12.568  28.668  1.00  0.00    -0.342  N
HETATM   29 C29  LIG A   1     -24.072 -13.586  28.075  1.00  0.00     0.110  C
HETATM   30 C30  LIG A   1     -24.773 -14.362  26.978  1.00  0.00     0.246  C
HETATM   31 O31  LIG A   1     -25.006 -15.593  27.117  1.00  0.00    -0.272  O
HETATM   32 C32  LIG A   1     -23.398 -14.475  29.165  1.00  0.00    -0.015  C
HETATM   33 C33  LIG A   1     -22.360 -13.653  29.952  1.00  0.00    -0.060  C
HETATM   34 C34  LIG A   1     -24.414 -15.135  30.132  1.00  0.00    -0.051  C
HETATM   35 C35  LIG A   1     -23.830 -16.337  30.874  1.00  0.00    -0.065  C
HETATM   36 N36  LIG A   1     -25.222 -13.694  25.790  1.00  0.00    -0.329  N
HETATM   37 C37  LIG A   1     -26.442 -14.055  25.084  1.00  0.00     0.111  C
HETATM   38 C38  LIG A   1     -26.246 -15.299  24.256  1.00  0.00     0.243  C
HETATM   39 O39  LIG A   1     -25.090 -15.780  24.100  1.00  0.00    -0.273  O
HETATM   40 C40  LIG A   1     -26.734 -12.853  24.187  1.00  0.00    -0.022  C
HETATM   41 C41  LIG A   1     -25.388 -12.169  23.991  1.00  0.00    -0.033  C
HETATM   42 C42  LIG A   1     -24.567 -12.530  25.220  1.00  0.00     0.021  C
HETATM   43 N43  LIG A   1     -27.373 -15.903  23.606  1.00  0.00    -0.343  N
HETATM   44 C44  LIG A   1     -27.236 -17.064  22.718  1.00  0.00     0.108  C
HETATM   45 C45  LIG A   1     -26.357 -16.759  21.531  1.00  0.00     0.243  C
HETATM   46 O46  LIG A   1     -26.149 -15.565  21.186  1.00  0.00    -0.273  O
HETATM   47 C47  LIG A   1     -28.611 -17.646  22.304  1.00  0.00    -0.021  C
HETATM   48 C48  LIG A   1     -29.365 -16.907  21.170  1.00  0.00    -0.045  C
HETATM   49 C49  LIG A   1     -30.620 -17.702  20.782  1.00  0.00    -0.063  C
HETATM   50 C50  LIG A   1     -29.759 -15.483  21.569  1.00  0.00    -0.063  C
HETATM   51 N51  LIG A   1     -25.801 -17.834  20.761  1.00  0.00    -0.343  N
HETATM   52 C52  LIG A   1     -24.363 -18.050  20.542  1.00  0.00     0.105  C
HETATM   53 C53  LIG A   1     -23.877 -19.168  21.429  1.00  0.00     0.243  C
HETATM   54 O54  LIG A   1     -23.365 -20.192  20.901  1.00  0.00    -0.273  O
HETATM   55 C55  LIG A   1     -23.514 -16.786  20.737  1.00  0.00    -0.036  C
HETATM   56 N56  LIG A   1     -24.002 -19.080  22.858  1.00  0.00    -0.340  N
HETATM   57 C57  LIG A   1     -23.772 -20.218  23.757  1.00  0.00     0.131  C
HETATM   58 C58  LIG A   1     -25.087 -20.777  24.271  1.00  0.00     0.245  C
HETATM   59 O59  LIG A   1     -25.083 -21.529  25.284  1.00  0.00    -0.273  O
HETATM   60 C60  LIG A   1     -22.855 -19.761  24.902  1.00  0.00     0.072  C
HETATM   61 O61  LIG A   1     -22.434 -20.861  25.662  1.00  0.00    -0.394  O
HETATM   62 N62  LIG A   1     -26.321 -20.538  23.568  1.00  0.00    -0.342  N
HETATM   63 C63  LIG A   1     -27.631 -21.059  23.976  1.00  0.00     0.108  C
HETATM   64 C64  LIG A   1     -27.918 -20.742  25.428  1.00  0.00     0.243  C
HETATM   65 O65  LIG A   1     -28.096 -21.676  26.257  1.00  0.00    -0.273  O
HETATM   66 C66  LIG A   1     -27.746 -22.567  23.658  1.00  0.00    -0.024  C
HETATM   67 C67  LIG A   1     -27.609 -22.885  22.153  1.00  0.00    -0.050  C
HETATM   68 C68  LIG A   1     -28.952 -23.098  21.428  1.00  0.00    -0.041  C
HETATM   69 C69  LIG A   1     -29.763 -21.809  21.231  1.00  0.00    -0.008  C
HETATM   70 N70  LIG A   1     -30.555 -21.505  22.420  1.00  0.00    -0.330  N
HETATM   71 N71  LIG A   1     -27.994 -19.372  25.859  1.00  0.00    -0.342  N
HETATM   72 C72  LIG A   1     -28.327 -18.981  27.233  1.00  0.00     0.110  C
HETATM   73 C73  LIG A   1     -29.625 -18.208  27.229  1.00  0.00     0.243  C
HETATM   74 O74  LIG A   1     -30.612 -18.674  27.863  1.00  0.00    -0.273  O
HETATM   75 C75  LIG A   1     -27.181 -18.154  27.884  1.00  0.00    -0.015  C
HETATM   76 C76  LIG A   1     -27.462 -17.905  29.376  1.00  0.00    -0.060  C
HETATM   77 C77  LIG A   1     -25.777 -18.780  27.679  1.00  0.00    -0.051  C
HETATM   78 C78  LIG A   1     -25.571 -20.130  28.370  1.00  0.00    -0.065  C
HETATM   79 N79  LIG A   1     -29.745 -16.954  26.534  1.00  0.00    -0.340  N
HETATM   80 C80  LIG A   1     -30.780 -15.977  26.884  1.00  0.00     0.131  C
HETATM   81 C81  LIG A   1     -31.288 -15.267  25.647  1.00  0.00     0.245  C
HETATM   82 O82  LIG A   1     -32.331 -15.706  25.088  1.00  0.00    -0.273  O
HETATM   83 C83  LIG A   1     -30.242 -15.008  27.948  1.00  0.00     0.072  C
HETATM   84 O84  LIG A   1     -31.231 -14.093  28.324  1.00  0.00    -0.394  O
HETATM   85 N85  LIG A   1     -30.615 -14.126  25.091  1.00  0.00    -0.345  N
HETATM   86 C86  LIG A   1     -31.319 -13.203  24.197  1.00  0.00     0.097  C
HETATM   87 C87  LIG A   1     -30.381 -12.187  23.612  1.00  0.00     0.240  C
HETATM   88 O88  LIG A   1     -29.662 -12.509  22.629  1.00  0.00    -0.273  O
HETATM   89 N89  LIG A   1     -30.308 -10.862  24.161  1.00  0.00    -0.342  N
HETATM   90 C90  LIG A   1     -29.534  -9.785  23.529  1.00  0.00     0.112  C
HETATM   91 C91  LIG A   1     -28.865  -8.934  24.580  1.00  0.00     0.243  C
HETATM   92 O92  LIG A   1     -29.515  -8.570  25.597  1.00  0.00    -0.273  O
HETATM   93 C93  LIG A   1     -30.452  -8.898  22.674  1.00  0.00     0.002  C
HETATM   94 C94  LIG A   1     -31.032  -9.651  21.505  1.00  0.00    -0.045  C
HETATM   95 C95  LIG A   1     -32.313 -10.222  21.591  1.00  0.00    -0.059  C
HETATM   96 C96  LIG A   1     -30.284  -9.808  20.327  1.00  0.00    -0.059  C
HETATM   97 C97  LIG A   1     -32.848 -10.913  20.500  1.00  0.00    -0.062  C
HETATM   98 C98  LIG A   1     -30.830 -10.484  19.233  1.00  0.00    -0.062  C
HETATM   99 C99  LIG A   1     -32.111 -11.035  19.319  1.00  0.00    -0.062  C
HETATM  100 N100 LIG A   1     -27.533  -8.443  24.361  1.00  0.00    -0.340  N
HETATM  101 C101 LIG A   1     -26.931  -7.399  25.204  1.00  0.00     0.134  C
HETATM  102 C102 LIG A   1     -25.794  -6.707  24.485  1.00  0.00     0.245  C
HETATM  103 O103 LIG A   1     -25.729  -5.448  24.527  1.00  0.00    -0.273  O
HETATM  104 C104 LIG A   1     -26.520  -7.943  26.599  1.00  0.00     0.080  C
HETATM  105 O105 LIG A   1     -25.854  -6.957  27.349  1.00  0.00    -0.391  O
HETATM  106 C106 LIG A   1     -25.704  -9.240  26.554  1.00  0.00    -0.036  C
HETATM  107 N107 LIG A   1     -24.782  -7.448  23.781  1.00  0.00    -0.342  N
HETATM  108 C108 LIG A   1     -23.772  -6.773  22.960  1.00  0.00     0.108  C
HETATM  109 C109 LIG A   1     -24.435  -6.173  21.747  1.00  0.00     0.243  C
HETATM  110 O110 LIG A   1     -24.285  -4.945  21.504  1.00  0.00    -0.273  O
HETATM  111 C111 LIG A   1     -22.667  -7.769  22.538  1.00  0.00    -0.021  C
HETATM  112 C112 LIG A   1     -21.458  -7.089  21.843  1.00  0.00    -0.045  C
HETATM  113 C113 LIG A   1     -20.518  -6.440  22.869  1.00  0.00    -0.063  C
HETATM  114 C114 LIG A   1     -20.685  -8.106  20.996  1.00  0.00    -0.063  C
HETATM  115 N115 LIG A   1     -25.211  -6.996  20.862  1.00  0.00    -0.343  N
HETATM  116 C116 LIG A   1     -25.609  -6.541  19.524  1.00  0.00     0.105  C
HETATM  117 C117 LIG A   1     -26.718  -7.390  18.952  1.00  0.00     0.242  C
HETATM  118 O118 LIG A   1     -26.838  -8.597  19.294  1.00  0.00    -0.273  O
HETATM  119 C119 LIG A   1     -24.400  -6.557  18.587  1.00  0.00    -0.036  C
HETATM  120 N120 LIG A   1     -27.591  -6.838  17.956  1.00  0.00    -0.343  N
HETATM  121 C121 LIG A   1     -28.661  -7.622  17.325  1.00  0.00     0.108  C
HETATM  122 C122 LIG A   1     -28.098  -8.622  16.343  1.00  0.00     0.243  C
HETATM  123 O123 LIG A   1     -28.827  -9.580  15.972  1.00  0.00    -0.273  O
HETATM  124 C124 LIG A   1     -29.675  -6.702  16.613  1.00  0.00    -0.021  C
HETATM  125 C125 LIG A   1     -30.417  -5.734  17.569  1.00  0.00    -0.045  C
HETATM  126 C126 LIG A   1     -31.338  -6.482  18.548  1.00  0.00    -0.063  C
HETATM  127 C127 LIG A   1     -31.234  -4.725  16.754  1.00  0.00    -0.063  C
HETATM  128 N128 LIG A   1     -26.772  -8.479  15.805  1.00  0.00    -0.342  N
HETATM  129 C129 LIG A   1     -26.087  -9.562  15.086  1.00  0.00     0.110  C
HETATM  130 C130 LIG A   1     -24.679  -9.725  15.616  1.00  0.00     0.243  C
HETATM  131 O131 LIG A   1     -24.021  -8.706  15.955  1.00  0.00    -0.273  O
HETATM  132 C132 LIG A   1     -26.141  -9.316  13.554  1.00  0.00    -0.018  C
HETATM  133 C133 LIG A   1     -25.407  -8.037  13.118  1.00  0.00    -0.060  C
HETATM  134 C134 LIG A   1     -25.612 -10.523  12.766  1.00  0.00    -0.060  C
HETATM  135 N135 LIG A   1     -24.091 -11.037  15.708  1.00  0.00    -0.343  N
HETATM  136 C136 LIG A   1     -22.910 -11.381  16.514  1.00  0.00     0.108  C
HETATM  137 C137 LIG A   1     -23.227 -11.257  17.981  1.00  0.00     0.243  C
HETATM  138 O138 LIG A   1     -23.707 -10.180  18.424  1.00  0.00    -0.273  O
HETATM  139 C139 LIG A   1     -21.668 -10.558  16.099  1.00  0.00    -0.024  C
HETATM  140 C140 LIG A   1     -20.346 -11.110  16.671  1.00  0.00    -0.050  C
HETATM  141 C141 LIG A   1     -19.961 -10.450  18.004  1.00  0.00    -0.041  C
HETATM  142 C142 LIG A   1     -18.646 -11.018  18.543  1.00  0.00    -0.008  C
HETATM  143 N143 LIG A   1     -18.318 -10.400  19.823  1.00  0.00    -0.330  N
HETATM  144 N144 LIG A   1     -22.981 -12.361  18.874  1.00  0.00    -0.342  N
HETATM  145 C145 LIG A   1     -23.507 -12.422  20.244  1.00  0.00     0.116  C
HETATM  146 C146 LIG A   1     -25.003 -12.214  20.216  1.00  0.00     0.243  C
HETATM  147 O147 LIG A   1     -25.527 -11.204  20.762  1.00  0.00    -0.273  O
HETATM  148 C148 LIG A   1     -22.756 -11.432  21.164  1.00  0.00     0.056  C
HETATM  149 C149 LIG A   1     -21.399 -11.939  21.568  1.00  0.00     0.220  C
HETATM  150 O150 LIG A   1     -20.683 -12.572  20.747  1.00  0.00    -0.275  O
HETATM  151 N151 LIG A   1     -20.887 -11.652  22.870  1.00  0.00    -0.370  N
HETATM  152 N152 LIG A   1     -25.818 -13.144  19.488  1.00  0.00    -0.343  N
HETATM  153 C153 LIG A   1     -27.169 -12.798  19.034  1.00  0.00     0.105  C
HETATM  154 C154 LIG A   1     -27.955 -14.021  18.625  1.00  0.00     0.243  C
HETATM  155 O155 LIG A   1     -27.365 -15.097  18.329  1.00  0.00    -0.273  O
HETATM  156 C156 LIG A   1     -27.075 -11.841  17.848  1.00  0.00    -0.036  C
HETATM  157 N157 LIG A   1     -29.379 -13.926  18.480  1.00  0.00    -0.340  N
HETATM  158 C158 LIG A   1     -30.160 -14.927  17.746  1.00  0.00     0.131  C
HETATM  159 C159 LIG A   1     -29.777 -14.921  16.288  1.00  0.00     0.245  C
HETATM  160 O160 LIG A   1     -29.662 -16.018  15.676  1.00  0.00    -0.273  O
HETATM  161 C161 LIG A   1     -31.661 -14.653  17.897  1.00  0.00     0.072  C
HETATM  162 O162 LIG A   1     -32.398 -15.705  17.336  1.00  0.00    -0.394  O
HETATM  163 N163 LIG A   1     -29.588 -13.679  15.587  1.00  0.00    -0.339  N
HETATM  164 C164 LIG A   1     -29.247 -13.629  14.161  1.00  0.00     0.153  C
HETATM  165 C165 LIG A   1     -27.859 -14.174  13.964  1.00  0.00     0.328  C
HETATM  166 O166 LIG A   1     -27.655 -15.091  13.123  1.00  0.00    -0.250  O
HETATM  167 C167 LIG A   1     -29.351 -12.181  13.627  1.00  0.00     0.082  C
HETATM  168 O168 LIG A   1     -30.627 -11.672  13.920  1.00  0.00    -0.391  O
HETATM  169 C169 LIG A   1     -29.124 -12.115  12.111  1.00  0.00    -0.036  C
HETATM  170 O170 LIG A   1     -26.797 -13.660  14.700  1.00  0.00    -0.480  O
ENDROOT
TORSDOF 0
                                                                                                                                                                             
ENDMDL
