MODEL 1
REMARK VINA RESULT:     0.605      0.000      0.000
REMARK INTER + INTRA:           0.605
REMARK INTER:                   0.605
REMARK INTRA:                   0.000
REMARK UNBOUND:                 0.000
ROOT
HETATM    1 N1   LIG A   1     -28.580  -6.222  29.119  1.00  0.00    -0.320  N
HETATM    2 C2   LIG A   1     -27.717  -6.696  30.208  1.00  0.00     0.087  C
HETATM    3 C3   LIG A   1     -28.498  -7.561  31.169  1.00  0.00     0.237  C
HETATM    4 O4   LIG A   1     -27.891  -8.460  31.812  1.00  0.00    -0.273  O
HETATM    5 C5   LIG A   1     -27.030  -5.514  30.953  1.00  0.00    -0.020  C
HETATM    6 C6   LIG A   1     -25.932  -4.881  30.080  1.00  0.00    -0.061  C
HETATM    7 C7   LIG A   1     -28.053  -4.454  31.436  1.00  0.00    -0.052  C
HETATM    8 C8   LIG A   1     -27.432  -3.397  32.350  1.00  0.00    -0.065  C
HETATM    9 N9   LIG A   1     -29.906  -7.357  31.379  1.00  0.00    -0.341  N
HETATM   10 C10  LIG A   1     -30.730  -8.335  32.094  1.00  0.00     0.131  C
HETATM   11 C11  LIG A   1     -30.756  -9.631  31.328  1.00  0.00     0.245  C
HETATM   12 O12  LIG A   1     -30.626 -10.722  31.949  1.00  0.00    -0.273  O
HETATM   13 C13  LIG A   1     -32.156  -7.797  32.287  1.00  0.00     0.072  C
HETATM   14 O14  LIG A   1     -32.909  -8.664  33.093  1.00  0.00    -0.394  O
HETATM   15 N15  LIG A   1     -30.944  -9.626  29.905  1.00  0.00    -0.342  N
HETATM   16 C16  LIG A   1     -30.730 -10.821  29.085  1.00  0.00     0.108  C
HETATM   17 C17  LIG A   1     -29.247 -11.002  28.870  1.00  0.00     0.243  C
HETATM   18 O18  LIG A   1     -28.661 -10.361  27.954  1.00  0.00    -0.273  O
HETATM   19 C19  LIG A   1     -31.478 -10.696  27.738  1.00  0.00    -0.021  C
HETATM   20 C20  LIG A   1     -33.013 -10.546  27.883  1.00  0.00    -0.045  C
HETATM   21 C21  LIG A   1     -33.617 -10.022  26.572  1.00  0.00    -0.063  C
HETATM   22 C22  LIG A   1     -33.685 -11.870  28.270  1.00  0.00    -0.063  C
HETATM   23 N23  LIG A   1     -28.487 -11.821  29.769  1.00  0.00    -0.343  N
HETATM   24 C24  LIG A   1     -27.026 -11.721  29.880  1.00  0.00     0.105  C
HETATM   25 C25  LIG A   1     -26.349 -12.752  29.017  1.00  0.00     0.242  C
HETATM   26 O26  LIG A   1     -26.982 -13.785  28.668  1.00  0.00    -0.273  O
HETATM   27 C27  LIG A   1     -26.604 -11.905  31.339  1.00  0.00    -0.036  C
HETATM   28 N28  LIG A   1     -24.966 -12.579  28.652  1.00  0.00    -0.342  N
HETATM   29 C29  LIG A   1     -24.099 -13.615  28.063  1.00  0.00     0.110  C
HETATM   30 C30  LIG A   1     -24.816 -14.388  26.975  1.00  0.00     0.246  C
HETATM   31 O31  LIG A   1     -25.069 -15.614  27.124  1.00  0.00    -0.272  O
HETATM   32 C32  LIG A   1     -23.436 -14.506  29.158  1.00  0.00    -0.015  C
HETATM   33 C33  LIG A   1     -22.382 -13.695  29.936  1.00  0.00    -0.060  C
HETATM   34 C34  LIG A   1     -24.459 -15.143  30.133  1.00  0.00    -0.051  C
HETATM   35 C35  LIG A   1     -23.892 -16.349  30.882  1.00  0.00    -0.065  C
HETATM   36 N36  LIG A   1     -25.258 -13.722  25.783  1.00  0.00    -0.329  N
HETATM   37 C37  LIG A   1     -26.487 -14.068  25.083  1.00  0.00     0.111  C
HETATM   38 C38  LIG A   1     -26.313 -15.322  24.265  1.00  0.00     0.243  C
HETATM   39 O39  LIG A   1     -25.165 -15.822  24.108  1.00  0.00    -0.273  O
HETATM   40 C40  LIG A   1     -26.762 -12.868  24.178  1.00  0.00    -0.022  C
HETATM   41 C41  LIG A   1     -25.406 -12.208  23.974  1.00  0.00    -0.033  C
HETATM   42 C42  LIG A   1     -24.587 -12.572  25.203  1.00  0.00     0.021  C
HETATM   43 N43  LIG A   1     -27.452 -15.912  23.622  1.00  0.00    -0.343  N
HETATM   44 C44  LIG A   1     -27.336 -17.081  22.742  1.00  0.00     0.108  C
HETATM   45 C45  LIG A   1     -26.456 -16.799  21.551  1.00  0.00     0.243  C
HETATM   46 O46  LIG A   1     -26.231 -15.612  21.196  1.00  0.00    -0.273  O
HETATM   47 C47  LIG A   1     -28.721 -17.645  22.337  1.00  0.00    -0.021  C
HETATM   48 C48  LIG A   1     -29.467 -16.902  21.201  1.00  0.00    -0.045  C
HETATM   49 C49  LIG A   1     -30.736 -17.680  20.822  1.00  0.00    -0.063  C
HETATM   50 C50  LIG A   1     -29.837 -15.469  21.590  1.00  0.00    -0.063  C
HETATM   51 N51  LIG A   1     -25.920 -17.889  20.787  1.00  0.00    -0.343  N
HETATM   52 C52  LIG A   1     -24.486 -18.129  20.565  1.00  0.00     0.105  C
HETATM   53 C53  LIG A   1     -24.015 -19.248  21.459  1.00  0.00     0.243  C
HETATM   54 O54  LIG A   1     -23.521 -20.285  20.937  1.00  0.00    -0.273  O
HETATM   55 C55  LIG A   1     -23.617 -16.878  20.748  1.00  0.00    -0.036  C
HETATM   56 N56  LIG A   1     -24.135 -19.148  22.888  1.00  0.00    -0.340  N
HETATM   57 C57  LIG A   1     -23.919 -20.283  23.795  1.00  0.00     0.131  C
HETATM   58 C58  LIG A   1     -25.242 -20.817  24.316  1.00  0.00     0.245  C
HETATM   59 O59  LIG A   1     -25.246 -21.561  25.336  1.00  0.00    -0.273  O
HETATM   60 C60  LIG A   1     -22.992 -19.832  24.933  1.00  0.00     0.072  C
HETATM   61 O61  LIG A   1     -22.586 -20.933  25.700  1.00  0.00    -0.394  O
HETATM   62 N62  LIG A   1     -26.473 -20.563  23.616  1.00  0.00    -0.342  N
HETATM   63 C63  LIG A   1     -27.791 -21.060  24.032  1.00  0.00     0.108  C
HETATM   64 C64  LIG A   1     -28.068 -20.728  25.482  1.00  0.00     0.243  C
HETATM   65 O65  LIG A   1     -28.258 -21.653  26.319  1.00  0.00    -0.273  O
HETATM   66 C66  LIG A   1     -27.931 -22.569  23.726  1.00  0.00    -0.024  C
HETATM   67 C67  LIG A   1     -27.803 -22.900  22.222  1.00  0.00    -0.050  C
HETATM   68 C68  LIG A   1     -29.152 -23.097  21.504  1.00  0.00    -0.041  C
HETATM   69 C69  LIG A   1     -29.943 -21.797  21.300  1.00  0.00    -0.008  C
HETATM   70 N70  LIG A   1     -30.727 -21.471  22.488  1.00  0.00    -0.330  N
HETATM   71 N71  LIG A   1     -28.120 -19.354  25.903  1.00  0.00    -0.342  N
HETATM   72 C72  LIG A   1     -28.443 -18.948  27.275  1.00  0.00     0.110  C
HETATM   73 C73  LIG A   1     -29.728 -18.154  27.270  1.00  0.00     0.243  C
HETATM   74 O74  LIG A   1     -30.720 -18.599  27.911  1.00  0.00    -0.273  O
HETATM   75 C75  LIG A   1     -27.282 -18.134  27.916  1.00  0.00    -0.015  C
HETATM   76 C76  LIG A   1     -27.554 -17.870  29.408  1.00  0.00    -0.060  C
HETATM   77 C77  LIG A   1     -25.889 -18.784  27.712  1.00  0.00    -0.051  C
HETATM   78 C78  LIG A   1     -25.702 -20.132  28.413  1.00  0.00    -0.065  C
HETATM   79 N79  LIG A   1     -29.831 -16.903  26.565  1.00  0.00    -0.340  N
HETATM   80 C80  LIG A   1     -30.848 -15.907  26.911  1.00  0.00     0.131  C
HETATM   81 C81  LIG A   1     -31.350 -15.198  25.671  1.00  0.00     0.245  C
HETATM   82 O82  LIG A   1     -32.401 -15.625  25.119  1.00  0.00    -0.273  O
HETATM   83 C83  LIG A   1     -30.291 -14.939  27.967  1.00  0.00     0.072  C
HETATM   84 O84  LIG A   1     -31.265 -14.006  28.339  1.00  0.00    -0.394  O
HETATM   85 N85  LIG A   1     -30.660 -14.072  25.104  1.00  0.00    -0.345  N
HETATM   86 C86  LIG A   1     -31.352 -13.145  24.206  1.00  0.00     0.097  C
HETATM   87 C87  LIG A   1     -30.400 -12.148  23.610  1.00  0.00     0.240  C
HETATM   88 O88  LIG A   1     -29.690 -12.489  22.628  1.00  0.00    -0.273  O
HETATM   89 N89  LIG A   1     -30.303 -10.821  24.149  1.00  0.00    -0.342  N
HETATM   90 C90  LIG A   1     -29.515  -9.761  23.507  1.00  0.00     0.112  C
HETATM   91 C91  LIG A   1     -28.829  -8.913  24.548  1.00  0.00     0.243  C
HETATM   92 O92  LIG A   1     -29.469  -8.531  25.565  1.00  0.00    -0.273  O
HETATM   93 C93  LIG A   1     -30.421  -8.866  22.647  1.00  0.00     0.002  C
HETATM   94 C94  LIG A   1     -31.017  -9.619  21.487  1.00  0.00    -0.045  C
HETATM   95 C95  LIG A   1     -32.307 -10.168  21.580  1.00  0.00    -0.059  C
HETATM   96 C96  LIG A   1     -30.276  -9.795  20.307  1.00  0.00    -0.059  C
HETATM   97 C97  LIG A   1     -32.857 -10.858  20.496  1.00  0.00    -0.062  C
HETATM   98 C98  LIG A   1     -30.836 -10.471  19.220  1.00  0.00    -0.062  C
HETATM   99 C99  LIG A   1     -32.126 -11.001  19.314  1.00  0.00    -0.062  C
HETATM  100 N100 LIG A   1     -27.490  -8.445  24.322  1.00  0.00    -0.340  N
HETATM  101 C101 LIG A   1     -26.868  -7.405  25.155  1.00  0.00     0.134  C
HETATM  102 C102 LIG A   1     -25.723  -6.737  24.427  1.00  0.00     0.245  C
HETATM  103 O103 LIG A   1     -25.638  -5.478  24.460  1.00  0.00    -0.273  O
HETATM  104 C104 LIG A   1     -26.462  -7.945  26.552  1.00  0.00     0.080  C
HETATM  105 O105 LIG A   1     -25.778  -6.964  27.293  1.00  0.00    -0.391  O
HETATM  106 C106 LIG A   1     -25.666  -9.255  26.515  1.00  0.00    -0.036  C
HETATM  107 N107 LIG A   1     -24.725  -7.498  23.726  1.00  0.00    -0.342  N
HETATM  108 C108 LIG A   1     -23.707  -6.846  22.897  1.00  0.00     0.108  C
HETATM  109 C109 LIG A   1     -24.364  -6.245  21.681  1.00  0.00     0.243  C
HETATM  110 O110 LIG A   1     -24.196  -5.021  21.428  1.00  0.00    -0.273  O
HETATM  111 C111 LIG A   1     -22.620  -7.862  22.478  1.00  0.00    -0.021  C
HETATM  112 C112 LIG A   1     -21.403  -7.207  21.775  1.00  0.00    -0.045  C
HETATM  113 C113 LIG A   1     -20.448  -6.566  22.793  1.00  0.00    -0.063  C
HETATM  114 C114 LIG A   1     -20.649  -8.243  20.933  1.00  0.00    -0.063  C
HETATM  115 N115 LIG A   1     -25.156  -7.062  20.804  1.00  0.00    -0.343  N
HETATM  116 C116 LIG A   1     -25.551  -6.610  19.465  1.00  0.00     0.105  C
HETATM  117 C117 LIG A   1     -26.676  -7.445  18.903  1.00  0.00     0.242  C
HETATM  118 O118 LIG A   1     -26.814  -8.648  19.255  1.00  0.00    -0.273  O
HETATM  119 C119 LIG A   1     -24.346  -6.652  18.525  1.00  0.00    -0.036  C
HETATM  120 N120 LIG A   1     -27.544  -6.887  17.906  1.00  0.00    -0.343  N
HETATM  121 C121 LIG A   1     -28.628  -7.659  17.284  1.00  0.00     0.108  C
HETATM  122 C122 LIG A   1     -28.084  -8.674  16.307  1.00  0.00     0.243  C
HETATM  123 O123 LIG A   1     -28.829  -9.623  15.946  1.00  0.00    -0.273  O
HETATM  124 C124 LIG A   1     -29.629  -6.728  16.568  1.00  0.00    -0.021  C
HETATM  125 C125 LIG A   1     -30.352  -5.741  17.519  1.00  0.00    -0.045  C
HETATM  126 C126 LIG A   1     -31.282  -6.467  18.507  1.00  0.00    -0.063  C
HETATM  127 C127 LIG A   1     -31.156  -4.726  16.699  1.00  0.00    -0.063  C
HETATM  128 N128 LIG A   1     -26.758  -8.557  15.764  1.00  0.00    -0.342  N
HETATM  129 C129 LIG A   1     -26.092  -9.656  15.051  1.00  0.00     0.110  C
HETATM  130 C130 LIG A   1     -24.686  -9.837  15.577  1.00  0.00     0.243  C
HETATM  131 O131 LIG A   1     -24.010  -8.826  15.908  1.00  0.00    -0.273  O
HETATM  132 C132 LIG A   1     -26.147  -9.421  13.518  1.00  0.00    -0.018  C
HETATM  133 C133 LIG A   1     -25.395  -8.157  13.070  1.00  0.00    -0.060  C
HETATM  134 C134 LIG A   1     -25.640 -10.642  12.737  1.00  0.00    -0.060  C
HETATM  135 N135 LIG A   1     -24.118 -11.158  15.678  1.00  0.00    -0.343  N
HETATM  136 C136 LIG A   1     -22.940 -11.515  16.482  1.00  0.00     0.108  C
HETATM  137 C137 LIG A   1     -23.250 -11.375  17.950  1.00  0.00     0.243  C
HETATM  138 O138 LIG A   1     -23.712 -10.287  18.386  1.00  0.00    -0.273  O
HETATM  139 C139 LIG A   1     -21.687 -10.715  16.057  1.00  0.00    -0.024  C
HETATM  140 C140 LIG A   1     -20.372 -11.284  16.630  1.00  0.00    -0.050  C
HETATM  141 C141 LIG A   1     -19.971 -10.620  17.957  1.00  0.00    -0.041  C
HETATM  142 C142 LIG A   1     -18.664 -11.205  18.496  1.00  0.00    -0.008  C
HETATM  143 N143 LIG A   1     -18.322 -10.583  19.770  1.00  0.00    -0.330  N
HETATM  144 N144 LIG A   1     -23.020 -12.476  18.850  1.00  0.00    -0.342  N
HETATM  145 C145 LIG A   1     -23.542 -12.519  20.222  1.00  0.00     0.116  C
HETATM  146 C146 LIG A   1     -25.034 -12.287  20.197  1.00  0.00     0.243  C
HETATM  147 O147 LIG A   1     -25.540 -11.264  20.737  1.00  0.00    -0.273  O
HETATM  148 C148 LIG A   1     -22.771 -11.533  21.132  1.00  0.00     0.056  C
HETATM  149 C149 LIG A   1     -21.422 -12.060  21.536  1.00  0.00     0.220  C
HETATM  150 O150 LIG A   1     -20.719 -12.710  20.717  1.00  0.00    -0.275  O
HETATM  151 N151 LIG A   1     -20.901 -11.771  22.834  1.00  0.00    -0.370  N
HETATM  152 N152 LIG A   1     -25.866 -13.209  19.479  1.00  0.00    -0.343  N
HETATM  153 C153 LIG A   1     -27.213 -12.845  19.027  1.00  0.00     0.105  C
HETATM  154 C154 LIG A   1     -28.020 -14.059  18.629  1.00  0.00     0.243  C
HETATM  155 O155 LIG A   1     -27.448 -15.146  18.339  1.00  0.00    -0.273  O
HETATM  156 C156 LIG A   1     -27.108 -11.898  17.833  1.00  0.00    -0.036  C
HETATM  157 N157 LIG A   1     -29.443 -13.942  18.488  1.00  0.00    -0.340  N
HETATM  158 C158 LIG A   1     -30.241 -14.936  17.764  1.00  0.00     0.131  C
HETATM  159 C159 LIG A   1     -29.863 -14.946  16.305  1.00  0.00     0.245  C
HETATM  160 O160 LIG A   1     -29.768 -16.050  15.700  1.00  0.00    -0.273  O
HETATM  161 C161 LIG A   1     -31.738 -14.636  17.917  1.00  0.00     0.072  C
HETATM  162 O162 LIG A   1     -32.494 -15.680  17.368  1.00  0.00    -0.394  O
HETATM  163 N163 LIG A   1     -29.657 -13.712  15.594  1.00  0.00    -0.339  N
HETATM  164 C164 LIG A   1     -29.320 -13.679  14.166  1.00  0.00     0.153  C
HETATM  165 C165 LIG A   1     -27.941 -14.248  13.969  1.00  0.00     0.328  C
HETATM  166 O166 LIG A   1     -27.755 -15.174  13.135  1.00  0.00    -0.250  O
HETATM  167 C167 LIG A   1     -29.402 -12.234  13.622  1.00  0.00     0.082  C
HETATM  168 O168 LIG A   1     -30.669 -11.702  13.916  1.00  0.00    -0.391  O
HETATM  169 C169 LIG A   1     -29.180 -12.183  12.105  1.00  0.00    -0.036  C
HETATM  170 O170 LIG A   1     -26.869 -13.745  14.698  1.00  0.00    -0.480  O
ENDROOT
TORSDOF 0
                                                                                                                                                                             
ENDMDL
