MODEL 1
REMARK VINA RESULT:    -9.811      0.000      0.000
REMARK INTER + INTRA:          -9.811
REMARK INTER:                  -9.811
REMARK INTRA:                   0.000
REMARK UNBOUND:                 0.000
ROOT
HETATM    1 N1   LIG A   1      21.408  -6.338  12.580  1.00  0.00    -0.320  N
HETATM    2 C2   LIG A   1      20.089  -6.772  13.045  1.00  0.00     0.084  C
HETATM    3 C3   LIG A   1      19.052  -6.503  11.979  1.00  0.00     0.237  C
HETATM    4 O4   LIG A   1      18.693  -5.315  11.749  1.00  0.00    -0.273  O
HETATM    5 C5   LIG A   1      19.699  -6.058  14.356  1.00  0.00    -0.027  C
HETATM    6 C6   LIG A   1      20.465  -6.552  15.607  1.00  0.00    -0.045  C
HETATM    7 C7   LIG A   1      19.745  -6.076  16.878  1.00  0.00    -0.063  C
HETATM    8 C8   LIG A   1      21.922  -6.064  15.627  1.00  0.00    -0.063  C
HETATM    9 N9   LIG A   1      18.507  -7.591  11.217  1.00  0.00    -0.343  N
HETATM   10 C10  LIG A   1      17.457  -7.449  10.201  1.00  0.00     0.110  C
HETATM   11 C11  LIG A   1      17.973  -6.623   9.039  1.00  0.00     0.243  C
HETATM   12 O12  LIG A   1      18.668  -7.207   8.164  1.00  0.00    -0.273  O
HETATM   13 C13  LIG A   1      16.110  -6.968  10.823  1.00  0.00    -0.015  C
HETATM   14 C14  LIG A   1      14.989  -6.936   9.767  1.00  0.00    -0.060  C
HETATM   15 C15  LIG A   1      15.686  -7.805  12.059  1.00  0.00    -0.051  C
HETATM   16 C16  LIG A   1      15.469  -9.295  11.782  1.00  0.00    -0.065  C
HETATM   17 N17  LIG A   1      17.744  -5.205   8.937  1.00  0.00    -0.340  N
HETATM   18 C18  LIG A   1      18.320  -4.394   7.861  1.00  0.00     0.131  C
HETATM   19 C19  LIG A   1      19.561  -3.695   8.357  1.00  0.00     0.245  C
HETATM   20 O20  LIG A   1      20.650  -3.884   7.750  1.00  0.00    -0.273  O
HETATM   21 C21  LIG A   1      17.281  -3.398   7.340  1.00  0.00     0.072  C
HETATM   22 O22  LIG A   1      17.802  -2.684   6.253  1.00  0.00    -0.394  O
HETATM   23 N23  LIG A   1      19.514  -2.823   9.501  1.00  0.00    -0.342  N
HETATM   24 C24  LIG A   1      20.686  -2.070   9.965  1.00  0.00     0.116  C
HETATM   25 C25  LIG A   1      20.722  -2.041  11.472  1.00  0.00     0.243  C
HETATM   26 O26  LIG A   1      21.598  -2.715  12.078  1.00  0.00    -0.273  O
HETATM   27 C27  LIG A   1      20.677  -0.640   9.392  1.00  0.00     0.056  C
HETATM   28 C28  LIG A   1      20.954  -0.636   7.917  1.00  0.00     0.220  C
HETATM   29 O29  LIG A   1      22.125  -0.844   7.503  1.00  0.00    -0.275  O
HETATM   30 N30  LIG A   1      19.900  -0.422   6.979  1.00  0.00    -0.370  N
HETATM   31 N31  LIG A   1      19.781  -1.253  12.219  1.00  0.00    -0.340  N
HETATM   32 C32  LIG A   1      19.955  -0.980  13.652  1.00  0.00     0.134  C
HETATM   33 C33  LIG A   1      19.165  -1.967  14.475  1.00  0.00     0.245  C
HETATM   34 O34  LIG A   1      19.711  -2.507  15.474  1.00  0.00    -0.273  O
HETATM   35 C35  LIG A   1      19.565   0.474  13.995  1.00  0.00     0.080  C
HETATM   36 O36  LIG A   1      18.230   0.718  13.641  1.00  0.00    -0.391  O
HETATM   37 C37  LIG A   1      20.482   1.476  13.282  1.00  0.00    -0.036  C
HETATM   38 N38  LIG A   1      17.800  -2.271  14.149  1.00  0.00    -0.342  N
HETATM   39 C39  LIG A   1      17.018  -3.273  14.884  1.00  0.00     0.108  C
HETATM   40 C40  LIG A   1      15.817  -3.702  14.074  1.00  0.00     0.243  C
HETATM   41 O41  LIG A   1      15.615  -4.930  13.877  1.00  0.00    -0.273  O
HETATM   42 C42  LIG A   1      16.574  -2.721  16.253  1.00  0.00    -0.024  C
HETATM   43 C43  LIG A   1      16.101  -3.842  17.190  1.00  0.00    -0.050  C
HETATM   44 C44  LIG A   1      15.578  -3.271  18.511  1.00  0.00    -0.041  C
HETATM   45 C45  LIG A   1      15.142  -4.383  19.466  1.00  0.00    -0.008  C
HETATM   46 N46  LIG A   1      14.527  -3.806  20.656  1.00  0.00    -0.330  N
HETATM   47 N47  LIG A   1      14.895  -2.718  13.573  1.00  0.00    -0.343  N
HETATM   48 C48  LIG A   1      13.618  -3.009  12.914  1.00  0.00     0.108  C
HETATM   49 C49  LIG A   1      12.628  -3.506  13.934  1.00  0.00     0.243  C
HETATM   50 O50  LIG A   1      12.690  -4.696  14.349  1.00  0.00    -0.273  O
HETATM   51 C51  LIG A   1      13.788  -3.970  11.716  1.00  0.00    -0.024  C
HETATM   52 C52  LIG A   1      12.622  -3.879  10.710  1.00  0.00    -0.050  C
HETATM   53 C53  LIG A   1      12.723  -2.680   9.748  1.00  0.00    -0.041  C
HETATM   54 C54  LIG A   1      13.779  -2.888   8.655  1.00  0.00    -0.008  C
HETATM   55 N55  LIG A   1      13.755  -1.769   7.718  1.00  0.00    -0.330  N
HETATM   56 N56  LIG A   1      11.669  -2.598  14.499  1.00  0.00    -0.342  N
HETATM   57 C57  LIG A   1      11.044  -2.840  15.803  1.00  0.00     0.112  C
HETATM   58 C58  LIG A   1       9.890  -1.888  16.015  1.00  0.00     0.243  C
HETATM   59 O59  LIG A   1       8.751  -2.354  16.293  1.00  0.00    -0.273  O
HETATM   60 C60  LIG A   1      12.094  -2.691  16.920  1.00  0.00     0.002  C
HETATM   61 C61  LIG A   1      11.547  -3.093  18.265  1.00  0.00    -0.045  C
HETATM   62 C62  LIG A   1      11.562  -4.441  18.658  1.00  0.00    -0.059  C
HETATM   63 C63  LIG A   1      10.992  -2.130  19.126  1.00  0.00    -0.059  C
HETATM   64 C64  LIG A   1      11.058  -4.816  19.907  1.00  0.00    -0.062  C
HETATM   65 C65  LIG A   1      10.487  -2.510  20.373  1.00  0.00    -0.062  C
HETATM   66 C66  LIG A   1      10.525  -3.850  20.765  1.00  0.00    -0.062  C
HETATM   67 N67  LIG A   1      10.086  -0.469  15.927  1.00  0.00    -0.345  N
HETATM   68 C68  LIG A   1       8.998   0.477  16.170  1.00  0.00     0.097  C
HETATM   69 C69  LIG A   1       9.365   1.845  15.673  1.00  0.00     0.240  C
HETATM   70 O70  LIG A   1       9.758   1.978  14.482  1.00  0.00    -0.273  O
HETATM   71 N71  LIG A   1       9.238   2.992  16.529  1.00  0.00    -0.341  N
HETATM   72 C72  LIG A   1       9.715   4.323  16.143  1.00  0.00     0.134  C
HETATM   73 C73  LIG A   1      11.003   4.609  16.879  1.00  0.00     0.245  C
HETATM   74 O74  LIG A   1      12.081   4.250  16.339  1.00  0.00    -0.273  O
HETATM   75 C75  LIG A   1       8.597   5.370  16.353  1.00  0.00     0.080  C
HETATM   76 O76  LIG A   1       7.483   4.998  15.581  1.00  0.00    -0.391  O
HETATM   77 C77  LIG A   1       9.051   6.775  15.929  1.00  0.00    -0.036  C
HETATM   78 N78  LIG A   1      11.028   5.210  18.189  1.00  0.00    -0.343  N
HETATM   79 C79  LIG A   1      12.261   5.398  18.969  1.00  0.00     0.105  C
HETATM   80 C80  LIG A   1      13.294   6.196  18.198  1.00  0.00     0.242  C
HETATM   81 O81  LIG A   1      12.933   6.913  17.225  1.00  0.00    -0.273  O
HETATM   82 C82  LIG A   1      12.804   4.033  19.409  1.00  0.00    -0.036  C
HETATM   83 N83  LIG A   1      14.670   6.200  18.611  1.00  0.00    -0.342  N
HETATM   84 C84  LIG A   1      15.770   6.492  17.686  1.00  0.00     0.110  C
HETATM   85 C85  LIG A   1      16.446   5.196  17.308  1.00  0.00     0.243  C
HETATM   86 O86  LIG A   1      16.547   4.888  16.090  1.00  0.00    -0.273  O
HETATM   87 C87  LIG A   1      16.768   7.503  18.322  1.00  0.00    -0.015  C
HETATM   88 C88  LIG A   1      17.943   7.789  17.365  1.00  0.00    -0.060  C
HETATM   89 C89  LIG A   1      16.037   8.817  18.699  1.00  0.00    -0.051  C
HETATM   90 C90  LIG A   1      16.903   9.774  19.523  1.00  0.00    -0.065  C
HETATM   91 N91  LIG A   1      17.004   4.337  18.314  1.00  0.00    -0.343  N
HETATM   92 C92  LIG A   1      17.765   3.130  17.974  1.00  0.00     0.105  C
HETATM   93 C93  LIG A   1      16.840   2.015  17.569  1.00  0.00     0.243  C
HETATM   94 O94  LIG A   1      17.142   1.296  16.580  1.00  0.00    -0.273  O
HETATM   95 C95  LIG A   1      18.620   2.686  19.163  1.00  0.00    -0.036  C
HETATM   96 N96  LIG A   1      15.666   1.722  18.343  1.00  0.00    -0.340  N
HETATM   97 C97  LIG A   1      14.821   0.552  18.080  1.00  0.00     0.131  C
HETATM   98 C98  LIG A   1      13.813   0.883  17.010  1.00  0.00     0.245  C
HETATM   99 O99  LIG A   1      12.685   1.348  17.331  1.00  0.00    -0.273  O
HETATM  100 C100 LIG A   1      14.140   0.092  19.378  1.00  0.00     0.072  C
HETATM  101 O101 LIG A   1      15.109  -0.305  20.308  1.00  0.00    -0.394  O
HETATM  102 N102 LIG A   1      14.158   0.746  15.622  1.00  0.00    -0.342  N
HETATM  103 C103 LIG A   1      13.595   1.650  14.617  1.00  0.00     0.113  C
HETATM  104 C104 LIG A   1      13.596   1.007  13.251  1.00  0.00     0.243  C
HETATM  105 O105 LIG A   1      12.494   0.727  12.705  1.00  0.00    -0.273  O
HETATM  106 C106 LIG A   1      14.387   2.972  14.622  1.00  0.00     0.021  C
HETATM  107 C107 LIG A   1      13.798   4.022  13.723  1.00  0.00     0.061  C
HETATM  108 N108 LIG A   1      12.521   4.038  13.285  1.00  0.00    -0.242  N
HETATM  109 C109 LIG A   1      14.438   5.173  13.324  1.00  0.00     0.024  C
HETATM  110 C110 LIG A   1      12.425   5.196  12.600  1.00  0.00     0.092  C
HETATM  111 N111 LIG A   1      13.571   5.903  12.608  1.00  0.00    -0.351  N
HETATM  112 N112 LIG A   1      14.825   0.743  12.557  1.00  0.00    -0.341  N
HETATM  113 C113 LIG A   1      14.917   0.821  11.094  1.00  0.00     0.127  C
HETATM  114 C114 LIG A   1      15.899  -0.192  10.563  1.00  0.00     0.326  C
HETATM  115 O115 LIG A   1      16.031  -1.307  11.133  1.00  0.00    -0.250  O
HETATM  116 C116 LIG A   1      15.268   2.262  10.660  1.00  0.00    -0.020  C
HETATM  117 C117 LIG A   1      16.646   2.739  11.159  1.00  0.00    -0.033  C
HETATM  118 C118 LIG A   1      16.973   4.140  10.633  1.00  0.00     0.018  C
HETATM  119 N119 LIG A   1      18.376   4.471  10.881  1.00  0.00    -0.357  N
HETATM  120 C120 LIG A   1      18.905   4.761  12.184  1.00  0.00     0.185  C
HETATM  121 N121 LIG A   1      18.136   4.738  13.225  1.00  0.00    -0.270  N
HETATM  122 N122 LIG A   1      20.291   5.085  12.326  1.00  0.00    -0.370  N
HETATM  123 O123 LIG A   1      16.605   0.065   9.391  1.00  0.00    -0.480  O
ENDROOT
TORSDOF 0
                                                                                                                              
ENDMDL
MODEL 2
REMARK VINA RESULT:    -9.642      3.693      8.547
REMARK INTER + INTRA:          -9.642
REMARK INTER:                  -9.642
REMARK INTRA:                   0.000
REMARK UNBOUND:                 0.000
ROOT
HETATM    1 N1   LIG A   1      18.186   6.020  13.932  1.00  0.00    -0.320  N
HETATM    2 C2   LIG A   1      18.445   4.657  14.400  1.00  0.00     0.084  C
HETATM    3 C3   LIG A   1      18.120   3.665  13.307  1.00  0.00     0.237  C
HETATM    4 O4   LIG A   1      16.914   3.443  13.011  1.00  0.00    -0.273  O
HETATM    5 C5   LIG A   1      17.624   4.339  15.667  1.00  0.00    -0.027  C
HETATM    6 C6   LIG A   1      18.133   5.034  16.953  1.00  0.00    -0.045  C
HETATM    7 C7   LIG A   1      17.513   4.362  18.187  1.00  0.00    -0.063  C
HETATM    8 C8   LIG A   1      17.809   6.537  16.967  1.00  0.00    -0.063  C
HETATM    9 N9   LIG A   1      19.180   3.008  12.596  1.00  0.00    -0.343  N
HETATM   10 C10  LIG A   1      18.977   1.989  11.559  1.00  0.00     0.110  C
HETATM   11 C11  LIG A   1      18.277   2.603  10.363  1.00  0.00     0.243  C
HETATM   12 O12  LIG A   1      18.979   3.235   9.529  1.00  0.00    -0.273  O
HETATM   13 C13  LIG A   1      18.317   0.699  12.137  1.00  0.00    -0.015  C
HETATM   14 C14  LIG A   1      18.218  -0.403  11.065  1.00  0.00    -0.060  C
HETATM   15 C15  LIG A   1      19.035   0.174  13.408  1.00  0.00    -0.051  C
HETATM   16 C16  LIG A   1      20.505  -0.205  13.206  1.00  0.00    -0.065  C
HETATM   17 N17  LIG A   1      16.849   2.534  10.184  1.00  0.00    -0.340  N
HETATM   18 C18  LIG A   1      16.165   3.205   9.076  1.00  0.00     0.131  C
HETATM   19 C19  LIG A   1      15.582   4.512   9.552  1.00  0.00     0.245  C
HETATM   20 O20  LIG A   1      15.923   5.578   8.970  1.00  0.00    -0.273  O
HETATM   21 C21  LIG A   1      15.089   2.288   8.489  1.00  0.00     0.072  C
HETATM   22 O22  LIG A   1      14.496   2.894   7.374  1.00  0.00    -0.394  O
HETATM   23 N23  LIG A   1      14.651   4.554  10.649  1.00  0.00    -0.342  N
HETATM   24 C24  LIG A   1      14.009   5.798  11.089  1.00  0.00     0.116  C
HETATM   25 C25  LIG A   1      13.904   5.825  12.593  1.00  0.00     0.243  C
HETATM   26 O26  LIG A   1      14.639   6.616  13.244  1.00  0.00    -0.273  O
HETATM   27 C27  LIG A   1      12.619   5.953  10.442  1.00  0.00     0.056  C
HETATM   28 C28  LIG A   1      12.724   6.240   8.973  1.00  0.00     0.220  C
HETATM   29 O29  LIG A   1      13.082   7.384   8.586  1.00  0.00    -0.275  O
HETATM   30 N30  LIG A   1      12.445   5.224   8.011  1.00  0.00    -0.370  N
HETATM   31 N31  LIG A   1      12.978   4.973  13.285  1.00  0.00    -0.340  N
HETATM   32 C32  LIG A   1      12.650   5.164  14.704  1.00  0.00     0.134  C
HETATM   33 C33  LIG A   1      13.499   4.263  15.566  1.00  0.00     0.245  C
HETATM   34 O34  LIG A   1      14.043   4.738  16.599  1.00  0.00    -0.273  O
HETATM   35 C35  LIG A   1      11.146   4.936  14.966  1.00  0.00     0.080  C
HETATM   36 O36  LIG A   1      10.775   3.639  14.581  1.00  0.00    -0.391  O
HETATM   37 C37  LIG A   1      10.292   5.964  14.214  1.00  0.00    -0.036  C
HETATM   38 N38  LIG A   1      13.667   2.874  15.237  1.00  0.00    -0.342  N
HETATM   39 C39  LIG A   1      14.536   1.980  16.012  1.00  0.00     0.108  C
HETATM   40 C40  LIG A   1      14.870   0.745  15.210  1.00  0.00     0.243  C
HETATM   41 O41  LIG A   1      16.077   0.409  15.074  1.00  0.00    -0.273  O
HETATM   42 C42  LIG A   1      13.866   1.590  17.345  1.00  0.00    -0.024  C
HETATM   43 C43  LIG A   1      14.876   0.987  18.332  1.00  0.00    -0.050  C
HETATM   44 C44  LIG A   1      14.181   0.521  19.615  1.00  0.00    -0.041  C
HETATM   45 C45  LIG A   1      15.186  -0.044  20.620  1.00  0.00    -0.008  C
HETATM   46 N46  LIG A   1      14.481  -0.600  21.770  1.00  0.00    -0.330  N
HETATM   47 N47  LIG A   1      13.819  -0.057  14.646  1.00  0.00    -0.343  N
HETATM   48 C48  LIG A   1      14.001  -1.354  13.985  1.00  0.00     0.108  C
HETATM   49 C49  LIG A   1      14.331  -2.401  15.016  1.00  0.00     0.243  C
HETATM   50 O50  LIG A   1      15.497  -2.475  15.493  1.00  0.00    -0.273  O
HETATM   51 C51  LIG A   1      15.037  -1.282  12.840  1.00  0.00    -0.024  C
HETATM   52 C52  LIG A   1      14.872  -2.422  11.816  1.00  0.00    -0.050  C
HETATM   53 C53  LIG A   1      13.743  -2.181  10.794  1.00  0.00    -0.041  C
HETATM   54 C54  LIG A   1      14.125  -1.146   9.728  1.00  0.00    -0.008  C
HETATM   55 N55  LIG A   1      13.062  -1.038   8.734  1.00  0.00    -0.330  N
HETATM   56 N56  LIG A   1      13.293  -3.257  15.520  1.00  0.00    -0.342  N
HETATM   57 C57  LIG A   1      13.395  -3.915  16.825  1.00  0.00     0.112  C
HETATM   58 C58  LIG A   1      12.311  -4.958  16.972  1.00  0.00     0.243  C
HETATM   59 O59  LIG A   1      12.632  -6.144  17.258  1.00  0.00    -0.273  O
HETATM   60 C60  LIG A   1      13.304  -2.864  17.947  1.00  0.00     0.002  C
HETATM   61 C61  LIG A   1      13.570  -3.463  19.304  1.00  0.00    -0.045  C
HETATM   62 C62  LIG A   1      14.889  -3.601  19.766  1.00  0.00    -0.059  C
HETATM   63 C63  LIG A   1      12.508  -3.915  20.106  1.00  0.00    -0.059  C
HETATM   64 C64  LIG A   1      15.140  -4.154  21.026  1.00  0.00    -0.062  C
HETATM   65 C65  LIG A   1      12.763  -4.468  21.364  1.00  0.00    -0.062  C
HETATM   66 C66  LIG A   1      14.076  -4.583  21.826  1.00  0.00    -0.062  C
HETATM   67 N67  LIG A   1      10.929  -4.604  16.813  1.00  0.00    -0.345  N
HETATM   68 C68  LIG A   1       9.857  -5.582  16.991  1.00  0.00     0.097  C
HETATM   69 C69  LIG A   1       8.567  -5.061  16.429  1.00  0.00     0.240  C
HETATM   70 O70  LIG A   1       8.541  -4.646  15.239  1.00  0.00    -0.273  O
HETATM   71 N71  LIG A   1       7.368  -5.066  17.223  1.00  0.00    -0.341  N
HETATM   72 C72  LIG A   1       6.121  -4.441  16.775  1.00  0.00     0.134  C
HETATM   73 C73  LIG A   1       5.940  -3.135  17.513  1.00  0.00     0.245  C
HETATM   74 O74  LIG A   1       6.445  -2.099  17.007  1.00  0.00    -0.273  O
HETATM   75 C75  LIG A   1       4.946  -5.437  16.914  1.00  0.00     0.080  C
HETATM   76 O76  LIG A   1       5.233  -6.580  16.148  1.00  0.00    -0.391  O
HETATM   77 C77  LIG A   1       3.625  -4.826  16.425  1.00  0.00    -0.036  C
HETATM   78 N78  LIG A   1       5.277  -3.054  18.790  1.00  0.00    -0.343  N
HETATM   79 C79  LIG A   1       5.186  -1.814  19.576  1.00  0.00     0.105  C
HETATM   80 C80  LIG A   1       4.549  -0.692  18.779  1.00  0.00     0.242  C
HETATM   81 O81  LIG A   1       3.850  -0.963  17.765  1.00  0.00    -0.273  O
HETATM   82 C82  LIG A   1       6.578  -1.429  20.093  1.00  0.00    -0.036  C
HETATM   83 N83  LIG A   1       4.676   0.672  19.210  1.00  0.00    -0.342  N
HETATM   84 C84  LIG A   1       4.557   1.806  18.286  1.00  0.00     0.110  C
HETATM   85 C85  LIG A   1       5.938   2.336  17.985  1.00  0.00     0.243  C
HETATM   86 O86  LIG A   1       6.320   2.411  16.787  1.00  0.00    -0.273  O
HETATM   87 C87  LIG A   1       3.631   2.905  18.883  1.00  0.00    -0.015  C
HETATM   88 C88  LIG A   1       3.527   4.112  17.929  1.00  0.00    -0.060  C
HETATM   89 C89  LIG A   1       2.225   2.322  19.181  1.00  0.00    -0.051  C
HETATM   90 C90  LIG A   1       1.328   3.282  19.966  1.00  0.00    -0.065  C
HETATM   91 N91  LIG A   1       6.799   2.786  19.043  1.00  0.00    -0.343  N
HETATM   92 C92  LIG A   1       8.100   3.412  18.776  1.00  0.00     0.105  C
HETATM   93 C93  LIG A   1       9.125   2.371  18.417  1.00  0.00     0.243  C
HETATM   94 O94  LIG A   1       9.924   2.599  17.471  1.00  0.00    -0.273  O
HETATM   95 C95  LIG A   1       8.572   4.202  19.998  1.00  0.00    -0.036  C
HETATM   96 N96  LIG A   1       9.245   1.165  19.188  1.00  0.00    -0.340  N
HETATM   97 C97  LIG A   1      10.326   0.198  18.976  1.00  0.00     0.131  C
HETATM   98 C98  LIG A   1       9.943  -0.759  17.875  1.00  0.00     0.245  C
HETATM   99 O99  LIG A   1       9.339  -1.830  18.156  1.00  0.00    -0.273  O
HETATM  100 C100 LIG A   1      10.638  -0.541  20.286  1.00  0.00     0.072  C
HETATM  101 O101 LIG A   1      11.090   0.371  21.248  1.00  0.00    -0.394  O
HETATM  102 N102 LIG A   1      10.191  -0.420  16.502  1.00  0.00    -0.342  N
HETATM  103 C103 LIG A   1       9.285  -0.871  15.443  1.00  0.00     0.113  C
HETATM  104 C104 LIG A   1       9.996  -0.931  14.113  1.00  0.00     0.243  C
HETATM  105 O105 LIG A   1      10.180  -2.053  13.566  1.00  0.00    -0.273  O
HETATM  106 C106 LIG A   1       8.060   0.063  15.391  1.00  0.00     0.021  C
HETATM  107 C107 LIG A   1       7.000  -0.398  14.430  1.00  0.00     0.061  C
HETATM  108 N108 LIG A   1       6.867  -1.662  13.974  1.00  0.00    -0.242  N
HETATM  109 C109 LIG A   1       5.950   0.370  13.981  1.00  0.00     0.024  C
HETATM  110 C110 LIG A   1       5.743  -1.622  13.229  1.00  0.00     0.092  C
HETATM  111 N111 LIG A   1       5.167  -0.405  13.216  1.00  0.00    -0.351  N
HETATM  112 N112 LIG A   1      10.431   0.266  13.450  1.00  0.00    -0.341  N
HETATM  113 C113 LIG A   1      10.441   0.379  11.987  1.00  0.00     0.127  C
HETATM  114 C114 LIG A   1      11.583   1.246  11.523  1.00  0.00     0.326  C
HETATM  115 O115 LIG A   1      12.674   1.248  12.151  1.00  0.00    -0.250  O
HETATM  116 C116 LIG A   1       9.073   0.891  11.484  1.00  0.00    -0.020  C
HETATM  117 C117 LIG A   1       8.726   2.310  11.975  1.00  0.00    -0.033  C
HETATM  118 C118 LIG A   1       7.399   2.795  11.382  1.00  0.00     0.018  C
HETATM  119 N119 LIG A   1       7.213   4.224  11.632  1.00  0.00    -0.357  N
HETATM  120 C120 LIG A   1       6.914   4.772  12.925  1.00  0.00     0.185  C
HETATM  121 N121 LIG A   1       6.797   3.997  13.956  1.00  0.00    -0.270  N
HETATM  122 N122 LIG A   1       6.739   6.184  13.069  1.00  0.00    -0.370  N
HETATM  123 O123 LIG A   1      11.469   1.985  10.349  1.00  0.00    -0.480  O
ENDROOT
TORSDOF 0
                                                                                                                              
ENDMDL
