MODEL 1
REMARK VINA RESULT:    -9.784      0.000      0.000
REMARK INTER + INTRA:          -9.784
REMARK INTER:                  -9.784
REMARK INTRA:                   0.000
REMARK UNBOUND:                 0.000
ROOT
HETATM    1 N1   LIG A   1      21.431  -6.343  12.595  1.00  0.00    -0.320  N
HETATM    2 C2   LIG A   1      20.115  -6.784  13.062  1.00  0.00     0.084  C
HETATM    3 C3   LIG A   1      19.076  -6.523  11.996  1.00  0.00     0.237  C
HETATM    4 O4   LIG A   1      18.709  -5.338  11.764  1.00  0.00    -0.273  O
HETATM    5 C5   LIG A   1      19.721  -6.071  14.372  1.00  0.00    -0.027  C
HETATM    6 C6   LIG A   1      20.490  -6.558  15.623  1.00  0.00    -0.045  C
HETATM    7 C7   LIG A   1      19.768  -6.086  16.894  1.00  0.00    -0.063  C
HETATM    8 C8   LIG A   1      21.944  -6.061  15.641  1.00  0.00    -0.063  C
HETATM    9 N9   LIG A   1      18.537  -7.616  11.235  1.00  0.00    -0.343  N
HETATM   10 C10  LIG A   1      17.486  -7.481  10.220  1.00  0.00     0.110  C
HETATM   11 C11  LIG A   1      17.996  -6.654   9.057  1.00  0.00     0.243  C
HETATM   12 O12  LIG A   1      18.694  -7.234   8.181  1.00  0.00    -0.273  O
HETATM   13 C13  LIG A   1      16.136  -7.008  10.842  1.00  0.00    -0.015  C
HETATM   14 C14  LIG A   1      15.014  -6.986   9.786  1.00  0.00    -0.060  C
HETATM   15 C15  LIG A   1      15.718  -7.847  12.079  1.00  0.00    -0.051  C
HETATM   16 C16  LIG A   1      15.511  -9.339  11.804  1.00  0.00    -0.065  C
HETATM   17 N17  LIG A   1      17.757  -5.237   8.953  1.00  0.00    -0.340  N
HETATM   18 C18  LIG A   1      18.328  -4.424   7.876  1.00  0.00     0.131  C
HETATM   19 C19  LIG A   1      19.564  -3.716   8.370  1.00  0.00     0.245  C
HETATM   20 O20  LIG A   1      20.654  -3.899   7.762  1.00  0.00    -0.273  O
HETATM   21 C21  LIG A   1      17.282  -3.436   7.353  1.00  0.00     0.072  C
HETATM   22 O22  LIG A   1      17.798  -2.719   6.266  1.00  0.00    -0.394  O
HETATM   23 N23  LIG A   1      19.512  -2.843   9.513  1.00  0.00    -0.342  N
HETATM   24 C24  LIG A   1      20.679  -2.082   9.976  1.00  0.00     0.116  C
HETATM   25 C25  LIG A   1      20.716  -2.051  11.482  1.00  0.00     0.243  C
HETATM   26 O26  LIG A   1      21.597  -2.719  12.088  1.00  0.00    -0.273  O
HETATM   27 C27  LIG A   1      20.660  -0.653   9.401  1.00  0.00     0.056  C
HETATM   28 C28  LIG A   1      20.936  -0.649   7.926  1.00  0.00     0.220  C
HETATM   29 O29  LIG A   1      22.109  -0.849   7.511  1.00  0.00    -0.275  O
HETATM   30 N30  LIG A   1      19.881  -0.443   6.988  1.00  0.00    -0.370  N
HETATM   31 N31  LIG A   1      19.771  -1.268  12.229  1.00  0.00    -0.340  N
HETATM   32 C32  LIG A   1      19.943  -0.992  13.662  1.00  0.00     0.134  C
HETATM   33 C33  LIG A   1      19.160  -1.983  14.486  1.00  0.00     0.245  C
HETATM   34 O34  LIG A   1      19.711  -2.519  15.485  1.00  0.00    -0.273  O
HETATM   35 C35  LIG A   1      19.544   0.459  14.003  1.00  0.00     0.080  C
HETATM   36 O36  LIG A   1      18.207   0.694  13.649  1.00  0.00    -0.391  O
HETATM   37 C37  LIG A   1      20.454   1.466  13.288  1.00  0.00    -0.036  C
HETATM   38 N38  LIG A   1      17.797  -2.297  14.161  1.00  0.00    -0.342  N
HETATM   39 C39  LIG A   1      17.022  -3.303  14.897  1.00  0.00     0.108  C
HETATM   40 C40  LIG A   1      15.823  -3.740  14.089  1.00  0.00     0.243  C
HETATM   41 O41  LIG A   1      15.629  -4.970  13.894  1.00  0.00    -0.273  O
HETATM   42 C42  LIG A   1      16.576  -2.753  16.266  1.00  0.00    -0.024  C
HETATM   43 C43  LIG A   1      16.110  -3.875  17.205  1.00  0.00    -0.050  C
HETATM   44 C44  LIG A   1      15.585  -3.306  18.526  1.00  0.00    -0.041  C
HETATM   45 C45  LIG A   1      15.156  -4.420  19.482  1.00  0.00    -0.008  C
HETATM   46 N46  LIG A   1      14.538  -3.845  20.672  1.00  0.00    -0.330  N
HETATM   47 N47  LIG A   1      14.895  -2.764  13.588  1.00  0.00    -0.343  N
HETATM   48 C48  LIG A   1      13.619  -3.063  12.930  1.00  0.00     0.108  C
HETATM   49 C49  LIG A   1      12.633  -3.566  13.951  1.00  0.00     0.243  C
HETATM   50 O50  LIG A   1      12.703  -4.755  14.367  1.00  0.00    -0.273  O
HETATM   51 C51  LIG A   1      13.795  -4.025  11.732  1.00  0.00    -0.024  C
HETATM   52 C52  LIG A   1      12.628  -3.943  10.727  1.00  0.00    -0.050  C
HETATM   53 C53  LIG A   1      12.721  -2.744   9.764  1.00  0.00    -0.041  C
HETATM   54 C54  LIG A   1      13.777  -2.946   8.670  1.00  0.00    -0.008  C
HETATM   55 N55  LIG A   1      13.746  -1.829   7.732  1.00  0.00    -0.330  N
HETATM   56 N56  LIG A   1      11.669  -2.663  14.515  1.00  0.00    -0.342  N
HETATM   57 C57  LIG A   1      11.046  -2.908  15.820  1.00  0.00     0.112  C
HETATM   58 C58  LIG A   1       9.886  -1.963  16.031  1.00  0.00     0.243  C
HETATM   59 O59  LIG A   1       8.750  -2.436  16.311  1.00  0.00    -0.273  O
HETATM   60 C60  LIG A   1      12.096  -2.751  16.936  1.00  0.00     0.002  C
HETATM   61 C61  LIG A   1      11.552  -3.154  18.282  1.00  0.00    -0.045  C
HETATM   62 C62  LIG A   1      11.576  -4.502  18.676  1.00  0.00    -0.059  C
HETATM   63 C63  LIG A   1      10.991  -2.195  19.141  1.00  0.00    -0.059  C
HETATM   64 C64  LIG A   1      11.076  -4.879  19.926  1.00  0.00    -0.062  C
HETATM   65 C65  LIG A   1      10.489  -2.576  20.390  1.00  0.00    -0.062  C
HETATM   66 C66  LIG A   1      10.536  -3.916  20.783  1.00  0.00    -0.062  C
HETATM   67 N67  LIG A   1      10.073  -0.543  15.942  1.00  0.00    -0.345  N
HETATM   68 C68  LIG A   1       8.978   0.396  16.183  1.00  0.00     0.097  C
HETATM   69 C69  LIG A   1       9.336   1.766  15.685  1.00  0.00     0.240  C
HETATM   70 O70  LIG A   1       9.728   1.900  14.494  1.00  0.00    -0.273  O
HETATM   71 N71  LIG A   1       9.203   2.913  16.540  1.00  0.00    -0.341  N
HETATM   72 C72  LIG A   1       9.670   4.247  16.152  1.00  0.00     0.134  C
HETATM   73 C73  LIG A   1      10.957   4.542  16.887  1.00  0.00     0.245  C
HETATM   74 O74  LIG A   1      12.037   4.189  16.346  1.00  0.00    -0.273  O
HETATM   75 C75  LIG A   1       8.546   5.287  16.361  1.00  0.00     0.080  C
HETATM   76 O76  LIG A   1       7.433   4.906  15.591  1.00  0.00    -0.391  O
HETATM   77 C77  LIG A   1       8.990   6.694  15.936  1.00  0.00    -0.036  C
HETATM   78 N78  LIG A   1      10.979   5.145  18.196  1.00  0.00    -0.343  N
HETATM   79 C79  LIG A   1      12.211   5.341  18.975  1.00  0.00     0.105  C
HETATM   80 C80  LIG A   1      13.238   6.146  18.203  1.00  0.00     0.242  C
HETATM   81 O81  LIG A   1      12.872   6.859  17.229  1.00  0.00    -0.273  O
HETATM   82 C82  LIG A   1      12.763   3.980  19.416  1.00  0.00    -0.036  C
HETATM   83 N83  LIG A   1      14.614   6.159  18.615  1.00  0.00    -0.342  N
HETATM   84 C84  LIG A   1      15.712   6.457  17.689  1.00  0.00     0.110  C
HETATM   85 C85  LIG A   1      16.396   5.165  17.312  1.00  0.00     0.243  C
HETATM   86 O86  LIG A   1      16.498   4.856  16.094  1.00  0.00    -0.273  O
HETATM   87 C87  LIG A   1      16.704   7.475  18.323  1.00  0.00    -0.015  C
HETATM   88 C88  LIG A   1      17.876   7.768  17.365  1.00  0.00    -0.060  C
HETATM   89 C89  LIG A   1      15.964   8.785  18.699  1.00  0.00    -0.051  C
HETATM   90 C90  LIG A   1      16.824   9.748  19.521  1.00  0.00    -0.065  C
HETATM   91 N91  LIG A   1      16.960   4.311  18.319  1.00  0.00    -0.343  N
HETATM   92 C92  LIG A   1      17.730   3.108  17.980  1.00  0.00     0.105  C
HETATM   93 C93  LIG A   1      16.811   1.987  17.577  1.00  0.00     0.243  C
HETATM   94 O94  LIG A   1      17.117   1.269  16.588  1.00  0.00    -0.273  O
HETATM   95 C95  LIG A   1      18.587   2.671  19.169  1.00  0.00    -0.036  C
HETATM   96 N96  LIG A   1      15.639   1.687  18.351  1.00  0.00    -0.340  N
HETATM   97 C97  LIG A   1      14.802   0.511  18.091  1.00  0.00     0.131  C
HETATM   98 C98  LIG A   1      13.791   0.834  17.020  1.00  0.00     0.245  C
HETATM   99 O99  LIG A   1      12.661   1.292  17.342  1.00  0.00    -0.273  O
HETATM  100 C100 LIG A   1      14.125   0.048  19.390  1.00  0.00     0.072  C
HETATM  101 O101 LIG A   1      15.097  -0.341  20.319  1.00  0.00    -0.394  O
HETATM  102 N102 LIG A   1      14.136   0.698  15.633  1.00  0.00    -0.342  N
HETATM  103 C103 LIG A   1      13.567   1.597  14.627  1.00  0.00     0.113  C
HETATM  104 C104 LIG A   1      13.571   0.952  13.262  1.00  0.00     0.243  C
HETATM  105 O105 LIG A   1      12.471   0.665  12.716  1.00  0.00    -0.273  O
HETATM  106 C106 LIG A   1      14.350   2.924  14.630  1.00  0.00     0.021  C
HETATM  107 C107 LIG A   1      13.754   3.970  13.730  1.00  0.00     0.061  C
HETATM  108 N108 LIG A   1      12.477   3.976  13.292  1.00  0.00    -0.242  N
HETATM  109 C109 LIG A   1      14.387   5.124  13.329  1.00  0.00     0.024  C
HETATM  110 C110 LIG A   1      12.373   5.133  12.607  1.00  0.00     0.092  C
HETATM  111 N111 LIG A   1      13.514   5.848  12.613  1.00  0.00    -0.351  N
HETATM  112 N112 LIG A   1      14.801   0.695  12.567  1.00  0.00    -0.341  N
HETATM  113 C113 LIG A   1      14.893   0.773  11.104  1.00  0.00     0.127  C
HETATM  114 C114 LIG A   1      15.881  -0.235  10.574  1.00  0.00     0.326  C
HETATM  115 O115 LIG A   1      16.020  -1.348  11.145  1.00  0.00    -0.250  O
HETATM  116 C116 LIG A   1      15.234   2.215  10.668  1.00  0.00    -0.020  C
HETATM  117 C117 LIG A   1      16.609   2.702  11.165  1.00  0.00    -0.033  C
HETATM  118 C118 LIG A   1      16.926   4.105  10.637  1.00  0.00     0.018  C
HETATM  119 N119 LIG A   1      18.327   4.445  10.885  1.00  0.00    -0.357  N
HETATM  120 C120 LIG A   1      18.855   4.740  12.187  1.00  0.00     0.185  C
HETATM  121 N121 LIG A   1      18.087   4.713  13.229  1.00  0.00    -0.270  N
HETATM  122 N122 LIG A   1      20.239   5.073  12.328  1.00  0.00    -0.370  N
HETATM  123 O123 LIG A   1      16.584   0.025   9.401  1.00  0.00    -0.480  O
ENDROOT
TORSDOF 0
                                                                                                                              
ENDMDL
MODEL 2
REMARK VINA RESULT:    -9.637      3.707      8.517
REMARK INTER + INTRA:          -9.637
REMARK INTER:                  -9.637
REMARK INTRA:                   0.000
REMARK UNBOUND:                 0.000
ROOT
HETATM    1 N1   LIG A   1      18.194   6.024  13.929  1.00  0.00    -0.320  N
HETATM    2 C2   LIG A   1      18.448   4.661  14.401  1.00  0.00     0.084  C
HETATM    3 C3   LIG A   1      18.119   3.668  13.310  1.00  0.00     0.237  C
HETATM    4 O4   LIG A   1      16.912   3.449  13.015  1.00  0.00    -0.273  O
HETATM    5 C5   LIG A   1      17.627   4.349  15.669  1.00  0.00    -0.027  C
HETATM    6 C6   LIG A   1      18.139   5.046  16.952  1.00  0.00    -0.045  C
HETATM    7 C7   LIG A   1      17.518   4.379  18.188  1.00  0.00    -0.063  C
HETATM    8 C8   LIG A   1      17.821   6.549  16.963  1.00  0.00    -0.063  C
HETATM    9 N9   LIG A   1      19.176   3.005  12.599  1.00  0.00    -0.343  N
HETATM   10 C10  LIG A   1      18.968   1.984  11.566  1.00  0.00     0.110  C
HETATM   11 C11  LIG A   1      18.269   2.598  10.369  1.00  0.00     0.243  C
HETATM   12 O12  LIG A   1      18.973   3.226   9.532  1.00  0.00    -0.273  O
HETATM   13 C13  LIG A   1      18.303   0.698  12.146  1.00  0.00    -0.015  C
HETATM   14 C14  LIG A   1      18.199  -0.407  11.078  1.00  0.00    -0.060  C
HETATM   15 C15  LIG A   1      19.020   0.174  13.419  1.00  0.00    -0.051  C
HETATM   16 C16  LIG A   1      20.488  -0.211  13.217  1.00  0.00    -0.065  C
HETATM   17 N17  LIG A   1      16.841   2.534  10.191  1.00  0.00    -0.340  N
HETATM   18 C18  LIG A   1      16.159   3.205   9.081  1.00  0.00     0.131  C
HETATM   19 C19  LIG A   1      15.582   4.515   9.554  1.00  0.00     0.245  C
HETATM   20 O20  LIG A   1      15.926   5.579   8.970  1.00  0.00    -0.273  O
HETATM   21 C21  LIG A   1      15.079   2.290   8.497  1.00  0.00     0.072  C
HETATM   22 O22  LIG A   1      14.487   2.896   7.381  1.00  0.00    -0.394  O
HETATM   23 N23  LIG A   1      14.651   4.563  10.652  1.00  0.00    -0.342  N
HETATM   24 C24  LIG A   1      14.014   5.811  11.090  1.00  0.00     0.116  C
HETATM   25 C25  LIG A   1      13.910   5.843  12.593  1.00  0.00     0.243  C
HETATM   26 O26  LIG A   1      14.648   6.632  13.242  1.00  0.00    -0.273  O
HETATM   27 C27  LIG A   1      12.625   5.970  10.443  1.00  0.00     0.056  C
HETATM   28 C28  LIG A   1      12.730   6.253   8.973  1.00  0.00     0.220  C
HETATM   29 O29  LIG A   1      13.092   7.395   8.583  1.00  0.00    -0.275  O
HETATM   30 N30  LIG A   1      12.446   5.236   8.014  1.00  0.00    -0.370  N
HETATM   31 N31  LIG A   1      12.982   4.995  13.288  1.00  0.00    -0.340  N
HETATM   32 C32  LIG A   1      12.655   5.191  14.707  1.00  0.00     0.134  C
HETATM   33 C33  LIG A   1      13.501   4.289  15.570  1.00  0.00     0.245  C
HETATM   34 O34  LIG A   1      14.047   4.764  16.602  1.00  0.00    -0.273  O
HETATM   35 C35  LIG A   1      11.151   4.969  14.970  1.00  0.00     0.080  C
HETATM   36 O36  LIG A   1      10.774   3.673  14.588  1.00  0.00    -0.391  O
HETATM   37 C37  LIG A   1      10.300   5.999  14.217  1.00  0.00    -0.036  C
HETATM   38 N38  LIG A   1      13.663   2.899  15.245  1.00  0.00    -0.342  N
HETATM   39 C39  LIG A   1      14.529   2.003  16.021  1.00  0.00     0.108  C
HETATM   40 C40  LIG A   1      14.859   0.765  15.222  1.00  0.00     0.243  C
HETATM   41 O41  LIG A   1      16.064   0.424  15.086  1.00  0.00    -0.273  O
HETATM   42 C42  LIG A   1      13.859   1.619  17.355  1.00  0.00    -0.024  C
HETATM   43 C43  LIG A   1      14.867   1.014  18.343  1.00  0.00    -0.050  C
HETATM   44 C44  LIG A   1      14.171   0.554  19.628  1.00  0.00    -0.041  C
HETATM   45 C45  LIG A   1      15.175  -0.012  20.633  1.00  0.00    -0.008  C
HETATM   46 N46  LIG A   1      14.469  -0.563  21.785  1.00  0.00    -0.330  N
HETATM   47 N47  LIG A   1      13.804  -0.035  14.660  1.00  0.00    -0.343  N
HETATM   48 C48  LIG A   1      13.980  -1.333  14.003  1.00  0.00     0.108  C
HETATM   49 C49  LIG A   1      14.307  -2.380  15.036  1.00  0.00     0.243  C
HETATM   50 O50  LIG A   1      15.473  -2.457  15.512  1.00  0.00    -0.273  O
HETATM   51 C51  LIG A   1      15.016  -1.268  12.857  1.00  0.00    -0.024  C
HETATM   52 C52  LIG A   1      14.846  -2.411  11.835  1.00  0.00    -0.050  C
HETATM   53 C53  LIG A   1      13.718  -2.167  10.814  1.00  0.00    -0.041  C
HETATM   54 C54  LIG A   1      14.102  -1.137   9.745  1.00  0.00    -0.008  C
HETATM   55 N55  LIG A   1      13.039  -1.027   8.751  1.00  0.00    -0.330  N
HETATM   56 N56  LIG A   1      13.266  -3.230  15.542  1.00  0.00    -0.342  N
HETATM   57 C57  LIG A   1      13.366  -3.886  16.849  1.00  0.00     0.112  C
HETATM   58 C58  LIG A   1      12.279  -4.924  16.999  1.00  0.00     0.243  C
HETATM   59 O59  LIG A   1      12.595  -6.111  17.288  1.00  0.00    -0.273  O
HETATM   60 C60  LIG A   1      13.281  -2.831  17.969  1.00  0.00     0.002  C
HETATM   61 C61  LIG A   1      13.545  -3.428  19.327  1.00  0.00    -0.045  C
HETATM   62 C62  LIG A   1      14.864  -3.570  19.789  1.00  0.00    -0.059  C
HETATM   63 C63  LIG A   1      12.482  -3.874  20.130  1.00  0.00    -0.059  C
HETATM   64 C64  LIG A   1      15.113  -4.121  21.050  1.00  0.00    -0.062  C
HETATM   65 C65  LIG A   1      12.735  -4.426  21.390  1.00  0.00    -0.062  C
HETATM   66 C66  LIG A   1      14.049  -4.544  21.851  1.00  0.00    -0.062  C
HETATM   67 N67  LIG A   1      10.898  -4.565  16.841  1.00  0.00    -0.345  N
HETATM   68 C68  LIG A   1       9.822  -5.539  17.022  1.00  0.00     0.097  C
HETATM   69 C69  LIG A   1       8.533  -5.014  16.459  1.00  0.00     0.240  C
HETATM   70 O70  LIG A   1       8.509  -4.602  15.268  1.00  0.00    -0.273  O
HETATM   71 N71  LIG A   1       7.336  -5.012  17.254  1.00  0.00    -0.341  N
HETATM   72 C72  LIG A   1       6.090  -4.384  16.805  1.00  0.00     0.134  C
HETATM   73 C73  LIG A   1       5.915  -3.075  17.540  1.00  0.00     0.245  C
HETATM   74 O74  LIG A   1       6.424  -2.043  17.031  1.00  0.00    -0.273  O
HETATM   75 C75  LIG A   1       4.912  -5.375  16.948  1.00  0.00     0.080  C
HETATM   76 O76  LIG A   1       5.194  -6.520  16.184  1.00  0.00    -0.391  O
HETATM   77 C77  LIG A   1       3.593  -4.760  16.458  1.00  0.00    -0.036  C
HETATM   78 N78  LIG A   1       5.253  -2.988  18.817  1.00  0.00    -0.343  N
HETATM   79 C79  LIG A   1       5.168  -1.746  19.600  1.00  0.00     0.105  C
HETATM   80 C80  LIG A   1       4.534  -0.624  18.801  1.00  0.00     0.242  C
HETATM   81 O81  LIG A   1       3.833  -0.895  17.788  1.00  0.00    -0.273  O
HETATM   82 C82  LIG A   1       6.561  -1.366  20.116  1.00  0.00    -0.036  C
HETATM   83 N83  LIG A   1       4.666   0.741  19.229  1.00  0.00    -0.342  N
HETATM   84 C84  LIG A   1       4.552   1.873  18.303  1.00  0.00     0.110  C
HETATM   85 C85  LIG A   1       5.935   2.397  17.999  1.00  0.00     0.243  C
HETATM   86 O86  LIG A   1       6.315   2.468  16.800  1.00  0.00    -0.273  O
HETATM   87 C87  LIG A   1       3.630   2.977  18.897  1.00  0.00    -0.015  C
HETATM   88 C88  LIG A   1       3.531   4.182  17.940  1.00  0.00    -0.060  C
HETATM   89 C89  LIG A   1       2.222   2.400  19.198  1.00  0.00    -0.051  C
HETATM   90 C90  LIG A   1       1.330   3.366  19.980  1.00  0.00    -0.065  C
HETATM   91 N91  LIG A   1       6.798   2.847  19.055  1.00  0.00    -0.343  N
HETATM   92 C92  LIG A   1       8.101   3.466  18.786  1.00  0.00     0.105  C
HETATM   93 C93  LIG A   1       9.121   2.421  18.429  1.00  0.00     0.243  C
HETATM   94 O94  LIG A   1       9.921   2.643  17.481  1.00  0.00    -0.273  O
HETATM   95 C95  LIG A   1       8.577   4.257  20.006  1.00  0.00    -0.036  C
HETATM   96 N96  LIG A   1       9.237   1.216  19.203  1.00  0.00    -0.340  N
HETATM   97 C97  LIG A   1      10.315   0.245  18.992  1.00  0.00     0.131  C
HETATM   98 C98  LIG A   1       9.927  -0.714  17.894  1.00  0.00     0.245  C
HETATM   99 O99  LIG A   1       9.320  -1.782  18.178  1.00  0.00    -0.273  O
HETATM  100 C100 LIG A   1      10.625  -0.492  20.304  1.00  0.00     0.072  C
HETATM  101 O101 LIG A   1      11.081   0.420  21.264  1.00  0.00    -0.394  O
HETATM  102 N102 LIG A   1      10.176  -0.379  16.520  1.00  0.00    -0.342  N
HETATM  103 C103 LIG A   1       9.267  -0.829  15.463  1.00  0.00     0.113  C
HETATM  104 C104 LIG A   1       9.977  -0.895  14.132  1.00  0.00     0.243  C
HETATM  105 O105 LIG A   1      10.157  -2.019  13.588  1.00  0.00    -0.273  O
HETATM  106 C106 LIG A   1       8.046   0.110  15.409  1.00  0.00     0.021  C
HETATM  107 C107 LIG A   1       6.984  -0.350  14.450  1.00  0.00     0.061  C
HETATM  108 N108 LIG A   1       6.845  -1.614  13.997  1.00  0.00    -0.242  N
HETATM  109 C109 LIG A   1       5.937   0.421  13.999  1.00  0.00     0.024  C
HETATM  110 C110 LIG A   1       5.721  -1.572  13.253  1.00  0.00     0.092  C
HETATM  111 N111 LIG A   1       5.150  -0.353  13.238  1.00  0.00    -0.351  N
HETATM  112 N112 LIG A   1      10.416   0.299  13.466  1.00  0.00    -0.341  N
HETATM  113 C113 LIG A   1      10.426   0.408  12.003  1.00  0.00     0.127  C
HETATM  114 C114 LIG A   1      11.571   1.269  11.535  1.00  0.00     0.326  C
HETATM  115 O115 LIG A   1      12.662   1.269  12.163  1.00  0.00    -0.250  O
HETATM  116 C116 LIG A   1       9.059   0.925  11.499  1.00  0.00    -0.020  C
HETATM  117 C117 LIG A   1       8.718   2.346  11.988  1.00  0.00    -0.033  C
HETATM  118 C118 LIG A   1       7.393   2.834  11.394  1.00  0.00     0.018  C
HETATM  119 N119 LIG A   1       7.213   4.265  11.641  1.00  0.00    -0.357  N
HETATM  120 C120 LIG A   1       6.917   4.817  12.932  1.00  0.00     0.185  C
HETATM  121 N121 LIG A   1       6.797   4.045  13.965  1.00  0.00    -0.270  N
HETATM  122 N122 LIG A   1       6.747   6.230  13.074  1.00  0.00    -0.370  N
HETATM  123 O123 LIG A   1      11.459   2.006  10.360  1.00  0.00    -0.480  O
ENDROOT
TORSDOF 0
                                                                                                                              
ENDMDL
MODEL 3
REMARK VINA RESULT:    -8.939      3.022     11.865
REMARK INTER + INTRA:          -8.939
REMARK INTER:                  -8.939
REMARK INTRA:                   0.000
REMARK UNBOUND:                 0.000
ROOT
HETATM    1 N1   LIG A   1       6.638   3.872  16.550  1.00  0.00    -0.320  N
HETATM    2 C2   LIG A   1       7.655   4.871  16.220  1.00  0.00     0.084  C
HETATM    3 C3   LIG A   1       7.750   5.035  14.720  1.00  0.00     0.237  C
HETATM    4 O4   LIG A   1       8.278   4.121  14.029  1.00  0.00    -0.273  O
HETATM    5 C5   LIG A   1       9.030   4.477  16.798  1.00  0.00    -0.027  C
HETATM    6 C6   LIG A   1       9.153   4.645  18.331  1.00  0.00    -0.045  C
HETATM    7 C7   LIG A   1      10.633   4.608  18.742  1.00  0.00    -0.063  C
HETATM    8 C8   LIG A   1       8.378   3.562  19.098  1.00  0.00    -0.063  C
HETATM    9 N9   LIG A   1       7.215   6.210  14.091  1.00  0.00    -0.343  N
HETATM   10 C10  LIG A   1       7.304   6.496  12.654  1.00  0.00     0.110  C
HETATM   11 C11  LIG A   1       6.511   5.466  11.874  1.00  0.00     0.243  C
HETATM   12 O12  LIG A   1       5.265   5.631  11.776  1.00  0.00    -0.273  O
HETATM   13 C13  LIG A   1       8.781   6.699  12.194  1.00  0.00    -0.015  C
HETATM   14 C14  LIG A   1       8.850   7.113  10.712  1.00  0.00    -0.060  C
HETATM   15 C15  LIG A   1       9.556   7.702  13.088  1.00  0.00    -0.051  C
HETATM   16 C16  LIG A   1       8.969   9.115  13.126  1.00  0.00    -0.065  C
HETATM   17 N17  LIG A   1       7.121   4.294  11.299  1.00  0.00    -0.340  N
HETATM   18 C18  LIG A   1       6.339   3.256  10.624  1.00  0.00     0.131  C
HETATM   19 C19  LIG A   1       6.096   2.105  11.567  1.00  0.00     0.245  C
HETATM   20 O20  LIG A   1       4.908   1.757  11.810  1.00  0.00    -0.273  O
HETATM   21 C21  LIG A   1       7.058   2.800   9.351  1.00  0.00     0.072  C
HETATM   22 O22  LIG A   1       6.270   1.871   8.659  1.00  0.00    -0.394  O
HETATM   23 N23  LIG A   1       7.193   1.408  12.185  1.00  0.00    -0.342  N
HETATM   24 C24  LIG A   1       6.996   0.237  13.050  1.00  0.00     0.116  C
HETATM   25 C25  LIG A   1       7.961   0.277  14.207  1.00  0.00     0.243  C
HETATM   26 O26  LIG A   1       7.524   0.522  15.363  1.00  0.00    -0.273  O
HETATM   27 C27  LIG A   1       7.158  -1.067  12.247  1.00  0.00     0.056  C
HETATM   28 C28  LIG A   1       6.016  -1.273  11.295  1.00  0.00     0.220  C
HETATM   29 O29  LIG A   1       4.892  -1.631  11.737  1.00  0.00    -0.275  O
HETATM   30 N30  LIG A   1       6.185  -1.045   9.896  1.00  0.00    -0.370  N
HETATM   31 N31  LIG A   1       9.363   0.031  14.008  1.00  0.00    -0.340  N
HETATM   32 C32  LIG A   1      10.280  -0.213  15.129  1.00  0.00     0.134  C
HETATM   33 C33  LIG A   1      10.974   1.064  15.529  1.00  0.00     0.245  C
HETATM   34 O34  LIG A   1      11.061   1.358  16.752  1.00  0.00    -0.273  O
HETATM   35 C35  LIG A   1      11.299  -1.321  14.786  1.00  0.00     0.080  C
HETATM   36 O36  LIG A   1      12.046  -0.964  13.653  1.00  0.00    -0.391  O
HETATM   37 C37  LIG A   1      10.597  -2.662  14.542  1.00  0.00    -0.036  C
HETATM   38 N38  LIG A   1      11.557   1.927  14.538  1.00  0.00    -0.342  N
HETATM   39 C39  LIG A   1      12.183   3.210  14.880  1.00  0.00     0.108  C
HETATM   40 C40  LIG A   1      12.296   4.084  13.654  1.00  0.00     0.243  C
HETATM   41 O41  LIG A   1      11.848   5.261  13.695  1.00  0.00    -0.273  O
HETATM   42 C42  LIG A   1      13.571   2.988  15.511  1.00  0.00    -0.024  C
HETATM   43 C43  LIG A   1      14.081   4.250  16.221  1.00  0.00    -0.050  C
HETATM   44 C44  LIG A   1      15.498   4.043  16.764  1.00  0.00    -0.041  C
HETATM   45 C45  LIG A   1      15.996   5.283  17.508  1.00  0.00    -0.008  C
HETATM   46 N46  LIG A   1      17.392   5.104  17.894  1.00  0.00    -0.330  N
HETATM   47 N47  LIG A   1      12.946   3.589  12.470  1.00  0.00    -0.343  N
HETATM   48 C48  LIG A   1      13.258   4.382  11.277  1.00  0.00     0.108  C
HETATM   49 C49  LIG A   1      14.395   5.322  11.582  1.00  0.00     0.243  C
HETATM   50 O50  LIG A   1      14.183   6.380  12.236  1.00  0.00    -0.273  O
HETATM   51 C51  LIG A   1      12.010   5.101  10.715  1.00  0.00    -0.024  C
HETATM   52 C52  LIG A   1      12.165   5.485   9.229  1.00  0.00    -0.050  C
HETATM   53 C53  LIG A   1      11.916   4.316   8.256  1.00  0.00    -0.041  C
HETATM   54 C54  LIG A   1      10.427   3.973   8.115  1.00  0.00    -0.008  C
HETATM   55 N55  LIG A   1      10.247   2.934   7.106  1.00  0.00    -0.330  N
HETATM   56 N56  LIG A   1      15.734   4.967  11.204  1.00  0.00    -0.342  N
HETATM   57 C57  LIG A   1      16.907   5.531  11.878  1.00  0.00     0.112  C
HETATM   58 C58  LIG A   1      18.163   5.206  11.103  1.00  0.00     0.243  C
HETATM   59 O59  LIG A   1      18.928   6.144  10.748  1.00  0.00    -0.273  O
HETATM   60 C60  LIG A   1      16.991   4.991  13.318  1.00  0.00     0.002  C
HETATM   61 C61  LIG A   1      18.080   5.665  14.111  1.00  0.00    -0.045  C
HETATM   62 C62  LIG A   1      17.827   6.885  14.759  1.00  0.00    -0.059  C
HETATM   63 C63  LIG A   1      19.364   5.098  14.185  1.00  0.00    -0.059  C
HETATM   64 C64  LIG A   1      18.835   7.511  15.499  1.00  0.00    -0.062  C
HETATM   65 C65  LIG A   1      20.369   5.730  14.923  1.00  0.00    -0.062  C
HETATM   66 C66  LIG A   1      20.104   6.931  15.584  1.00  0.00    -0.062  C
HETATM   67 N67  LIG A   1      18.500   3.845  10.795  1.00  0.00    -0.345  N
HETATM   68 C68  LIG A   1      19.730   3.497  10.084  1.00  0.00     0.097  C
HETATM   69 C69  LIG A   1      19.669   2.084   9.581  1.00  0.00     0.240  C
HETATM   70 O70  LIG A   1      18.683   1.726   8.881  1.00  0.00    -0.273  O
HETATM   71 N71  LIG A   1      20.734   1.161   9.863  1.00  0.00    -0.341  N
HETATM   72 C72  LIG A   1      20.658  -0.261   9.519  1.00  0.00     0.134  C
HETATM   73 C73  LIG A   1      20.388  -1.051  10.778  1.00  0.00     0.245  C
HETATM   74 O74  LIG A   1      19.188  -1.239  11.108  1.00  0.00    -0.273  O
HETATM   75 C75  LIG A   1      21.924  -0.689   8.741  1.00  0.00     0.080  C
HETATM   76 O76  LIG A   1      22.025   0.099   7.581  1.00  0.00    -0.391  O
HETATM   77 C77  LIG A   1      21.867  -2.169   8.336  1.00  0.00    -0.036  C
HETATM   78 N78  LIG A   1      21.444  -1.529  11.634  1.00  0.00    -0.343  N
HETATM   79 C79  LIG A   1      21.202  -2.204  12.918  1.00  0.00     0.105  C
HETATM   80 C80  LIG A   1      20.311  -3.419  12.752  1.00  0.00     0.242  C
HETATM   81 O81  LIG A   1      20.182  -3.951  11.615  1.00  0.00    -0.273  O
HETATM   82 C82  LIG A   1      20.623  -1.202  13.924  1.00  0.00    -0.036  C
HETATM   83 N83  LIG A   1      19.667  -4.013  13.890  1.00  0.00    -0.342  N
HETATM   84 C84  LIG A   1      18.443  -4.813  13.777  1.00  0.00     0.110  C
HETATM   85 C85  LIG A   1      17.269  -3.976  14.225  1.00  0.00     0.243  C
HETATM   86 O86  LIG A   1      16.297  -3.811  13.440  1.00  0.00    -0.273  O
HETATM   87 C87  LIG A   1      18.567  -6.127  14.602  1.00  0.00    -0.015  C
HETATM   88 C88  LIG A   1      17.271  -6.957  14.509  1.00  0.00    -0.060  C
HETATM   89 C89  LIG A   1      19.784  -6.956  14.115  1.00  0.00    -0.051  C
HETATM   90 C90  LIG A   1      20.098  -8.152  15.016  1.00  0.00    -0.065  C
HETATM   91 N91  LIG A   1      17.235  -3.402  15.541  1.00  0.00    -0.343  N
HETATM   92 C92  LIG A   1      16.062  -2.681  16.047  1.00  0.00     0.105  C
HETATM   93 C93  LIG A   1      16.002  -1.294  15.467  1.00  0.00     0.243  C
HETATM   94 O94  LIG A   1      14.892  -0.839  15.081  1.00  0.00    -0.273  O
HETATM   95 C95  LIG A   1      16.104  -2.600  17.574  1.00  0.00    -0.036  C
HETATM   96 N96  LIG A   1      17.176  -0.467  15.422  1.00  0.00    -0.340  N
HETATM   97 C97  LIG A   1      17.133   0.940  15.013  1.00  0.00     0.131  C
HETATM   98 C98  LIG A   1      17.229   1.036  13.511  1.00  0.00     0.245  C
HETATM   99 O99  LIG A   1      18.359   1.139  12.959  1.00  0.00    -0.273  O
HETATM  100 C100 LIG A   1      18.259   1.724  15.704  1.00  0.00     0.072  C
HETATM  101 O101 LIG A   1      18.074   1.697  17.092  1.00  0.00    -0.394  O
HETATM  102 N102 LIG A   1      16.048   0.931  12.702  1.00  0.00    -0.342  N
HETATM  103 C103 LIG A   1      16.102   0.319  11.372  1.00  0.00     0.113  C
HETATM  104 C104 LIG A   1      14.976   0.820  10.500  1.00  0.00     0.243  C
HETATM  105 O105 LIG A   1      15.249   1.531   9.495  1.00  0.00    -0.273  O
HETATM  106 C106 LIG A   1      16.069  -1.215  11.516  1.00  0.00     0.021  C
HETATM  107 C107 LIG A   1      16.263  -1.940  10.214  1.00  0.00     0.061  C
HETATM  108 N108 LIG A   1      16.832  -1.409   9.111  1.00  0.00    -0.242  N
HETATM  109 C109 LIG A   1      16.004  -3.275  10.004  1.00  0.00     0.024  C
HETATM  110 C110 LIG A   1      16.879  -2.438   8.241  1.00  0.00     0.092  C
HETATM  111 N111 LIG A   1      16.385  -3.580   8.755  1.00  0.00    -0.351  N
HETATM  112 N112 LIG A   1      13.611   0.472  10.780  1.00  0.00    -0.341  N
HETATM  113 C113 LIG A   1      12.628   0.282   9.707  1.00  0.00     0.127  C
HETATM  114 C114 LIG A   1      11.256   0.722  10.151  1.00  0.00     0.326  C
HETATM  115 O115 LIG A   1      11.127   1.690  10.945  1.00  0.00    -0.250  O
HETATM  116 C116 LIG A   1      12.646  -1.185   9.223  1.00  0.00    -0.020  C
HETATM  117 C117 LIG A   1      12.231  -2.198  10.308  1.00  0.00    -0.033  C
HETATM  118 C118 LIG A   1      12.190  -3.624   9.749  1.00  0.00     0.018  C
HETATM  119 N119 LIG A   1      11.542  -4.531  10.697  1.00  0.00    -0.357  N
HETATM  120 C120 LIG A   1      12.145  -4.957  11.928  1.00  0.00     0.185  C
HETATM  121 N121 LIG A   1      13.324  -4.538  12.261  1.00  0.00    -0.270  N
HETATM  122 N122 LIG A   1      11.437  -5.855  12.786  1.00  0.00    -0.370  N
HETATM  123 O123 LIG A   1      10.121   0.116   9.622  1.00  0.00    -0.480  O
ENDROOT
TORSDOF 0
                                                                                                                              
ENDMDL
