MODEL 1
REMARK VINA RESULT:    -9.656      0.000      0.000
REMARK INTER + INTRA:          -9.656
REMARK INTER:                  -9.656
REMARK INTRA:                   0.000
REMARK UNBOUND:                 0.000
ROOT
HETATM    1 N1   LIG A   1      18.187   6.046  13.940  1.00  0.00    -0.320  N
HETATM    2 C2   LIG A   1      18.443   4.685  14.414  1.00  0.00     0.084  C
HETATM    3 C3   LIG A   1      18.112   3.689  13.326  1.00  0.00     0.237  C
HETATM    4 O4   LIG A   1      16.905   3.469  13.034  1.00  0.00    -0.273  O
HETATM    5 C5   LIG A   1      17.625   4.374  15.685  1.00  0.00    -0.027  C
HETATM    6 C6   LIG A   1      18.138   5.074  16.966  1.00  0.00    -0.045  C
HETATM    7 C7   LIG A   1      17.521   4.408  18.204  1.00  0.00    -0.063  C
HETATM    8 C8   LIG A   1      17.819   6.577  16.974  1.00  0.00    -0.063  C
HETATM    9 N9   LIG A   1      19.169   3.026  12.614  1.00  0.00    -0.343  N
HETATM   10 C10  LIG A   1      18.959   2.003  11.583  1.00  0.00     0.110  C
HETATM   11 C11  LIG A   1      18.257   2.614  10.386  1.00  0.00     0.243  C
HETATM   12 O12  LIG A   1      18.959   3.241   9.547  1.00  0.00    -0.273  O
HETATM   13 C13  LIG A   1      18.297   0.717  12.168  1.00  0.00    -0.015  C
HETATM   14 C14  LIG A   1      18.192  -0.389  11.101  1.00  0.00    -0.060  C
HETATM   15 C15  LIG A   1      19.017   0.196  13.440  1.00  0.00    -0.051  C
HETATM   16 C16  LIG A   1      20.485  -0.188  13.235  1.00  0.00    -0.065  C
HETATM   17 N17  LIG A   1      16.829   2.548  10.212  1.00  0.00    -0.340  N
HETATM   18 C18  LIG A   1      16.144   3.217   9.102  1.00  0.00     0.131  C
HETATM   19 C19  LIG A   1      15.566   4.527   9.574  1.00  0.00     0.245  C
HETATM   20 O20  LIG A   1      15.909   5.590   8.987  1.00  0.00    -0.273  O
HETATM   21 C21  LIG A   1      15.064   2.300   8.522  1.00  0.00     0.072  C
HETATM   22 O22  LIG A   1      14.469   2.902   7.406  1.00  0.00    -0.394  O
HETATM   23 N23  LIG A   1      14.638   4.576  10.673  1.00  0.00    -0.342  N
HETATM   24 C24  LIG A   1      14.000   5.824  11.110  1.00  0.00     0.116  C
HETATM   25 C25  LIG A   1      13.900   5.858  12.614  1.00  0.00     0.243  C
HETATM   26 O26  LIG A   1      14.639   6.649  13.260  1.00  0.00    -0.273  O
HETATM   27 C27  LIG A   1      12.610   5.980  10.467  1.00  0.00     0.056  C
HETATM   28 C28  LIG A   1      12.712   6.261   8.996  1.00  0.00     0.220  C
HETATM   29 O29  LIG A   1      13.072   7.402   8.603  1.00  0.00    -0.275  O
HETATM   30 N30  LIG A   1      12.427   5.242   8.039  1.00  0.00    -0.370  N
HETATM   31 N31  LIG A   1      12.974   5.011  13.312  1.00  0.00    -0.340  N
HETATM   32 C32  LIG A   1      12.650   5.209  14.731  1.00  0.00     0.134  C
HETATM   33 C33  LIG A   1      13.498   4.309  15.595  1.00  0.00     0.245  C
HETATM   34 O34  LIG A   1      14.047   4.787  16.625  1.00  0.00    -0.273  O
HETATM   35 C35  LIG A   1      11.146   4.986  14.998  1.00  0.00     0.080  C
HETATM   36 O36  LIG A   1      10.770   3.689  14.620  1.00  0.00    -0.391  O
HETATM   37 C37  LIG A   1      10.293   6.013  14.245  1.00  0.00    -0.036  C
HETATM   38 N38  LIG A   1      13.662   2.919  15.272  1.00  0.00    -0.342  N
HETATM   39 C39  LIG A   1      14.530   2.026  16.048  1.00  0.00     0.108  C
HETATM   40 C40  LIG A   1      14.859   0.786  15.250  1.00  0.00     0.243  C
HETATM   41 O41  LIG A   1      16.065   0.447  15.112  1.00  0.00    -0.273  O
HETATM   42 C42  LIG A   1      13.863   1.643  17.384  1.00  0.00    -0.024  C
HETATM   43 C43  LIG A   1      14.874   1.041  18.371  1.00  0.00    -0.050  C
HETATM   44 C44  LIG A   1      14.182   0.583  19.658  1.00  0.00    -0.041  C
HETATM   45 C45  LIG A   1      15.188   0.020  20.662  1.00  0.00    -0.008  C
HETATM   46 N46  LIG A   1      14.485  -0.530  21.817  1.00  0.00    -0.330  N
HETATM   47 N47  LIG A   1      13.804  -0.016  14.692  1.00  0.00    -0.343  N
HETATM   48 C48  LIG A   1      13.981  -1.315  14.037  1.00  0.00     0.108  C
HETATM   49 C49  LIG A   1      14.310  -2.359  15.071  1.00  0.00     0.243  C
HETATM   50 O50  LIG A   1      15.477  -2.435  15.545  1.00  0.00    -0.273  O
HETATM   51 C51  LIG A   1      15.014  -1.251  12.889  1.00  0.00    -0.024  C
HETATM   52 C52  LIG A   1      14.842  -2.396  11.869  1.00  0.00    -0.050  C
HETATM   53 C53  LIG A   1      13.712  -2.155  10.850  1.00  0.00    -0.041  C
HETATM   54 C54  LIG A   1      14.093  -1.126   9.778  1.00  0.00    -0.008  C
HETATM   55 N55  LIG A   1      13.028  -1.019   8.787  1.00  0.00    -0.330  N
HETATM   56 N56  LIG A   1      13.272  -3.210  15.581  1.00  0.00    -0.342  N
HETATM   57 C57  LIG A   1      13.375  -3.863  16.889  1.00  0.00     0.112  C
HETATM   58 C58  LIG A   1      12.289  -4.902  17.043  1.00  0.00     0.243  C
HETATM   59 O59  LIG A   1      12.607  -6.088  17.334  1.00  0.00    -0.273  O
HETATM   60 C60  LIG A   1      13.291  -2.807  18.007  1.00  0.00     0.002  C
HETATM   61 C61  LIG A   1      13.559  -3.401  19.366  1.00  0.00    -0.045  C
HETATM   62 C62  LIG A   1      14.879  -3.541  19.825  1.00  0.00    -0.059  C
HETATM   63 C63  LIG A   1      12.498  -3.846  20.172  1.00  0.00    -0.059  C
HETATM   64 C64  LIG A   1      15.131  -4.089  21.087  1.00  0.00    -0.062  C
HETATM   65 C65  LIG A   1      12.754  -4.395  21.432  1.00  0.00    -0.062  C
HETATM   66 C66  LIG A   1      14.069  -4.512  21.891  1.00  0.00    -0.062  C
HETATM   67 N67  LIG A   1      10.908  -4.545  16.887  1.00  0.00    -0.345  N
HETATM   68 C68  LIG A   1       9.833  -5.520  17.072  1.00  0.00     0.097  C
HETATM   69 C69  LIG A   1       8.543  -4.997  16.511  1.00  0.00     0.240  C
HETATM   70 O70  LIG A   1       8.515  -4.587  15.319  1.00  0.00    -0.273  O
HETATM   71 N71  LIG A   1       7.347  -4.995  17.308  1.00  0.00    -0.341  N
HETATM   72 C72  LIG A   1       6.100  -4.369  16.861  1.00  0.00     0.134  C
HETATM   73 C73  LIG A   1       5.925  -3.059  17.594  1.00  0.00     0.245  C
HETATM   74 O74  LIG A   1       6.431  -2.027  17.082  1.00  0.00    -0.273  O
HETATM   75 C75  LIG A   1       4.923  -5.361  17.008  1.00  0.00     0.080  C
HETATM   76 O76  LIG A   1       5.205  -6.507  16.246  1.00  0.00    -0.391  O
HETATM   77 C77  LIG A   1       3.602  -4.748  16.520  1.00  0.00    -0.036  C
HETATM   78 N78  LIG A   1       5.265  -2.970  18.873  1.00  0.00    -0.343  N
HETATM   79 C79  LIG A   1       5.180  -1.727  19.653  1.00  0.00     0.105  C
HETATM   80 C80  LIG A   1       4.544  -0.607  18.854  1.00  0.00     0.242  C
HETATM   81 O81  LIG A   1       3.841  -0.880  17.843  1.00  0.00    -0.273  O
HETATM   82 C82  LIG A   1       6.574  -1.344  20.166  1.00  0.00    -0.036  C
HETATM   83 N83  LIG A   1       4.675   0.759  19.278  1.00  0.00    -0.342  N
HETATM   84 C84  LIG A   1       4.558   1.889  18.350  1.00  0.00     0.110  C
HETATM   85 C85  LIG A   1       5.939   2.414  18.043  1.00  0.00     0.243  C
HETATM   86 O86  LIG A   1       6.318   2.483  16.843  1.00  0.00    -0.273  O
HETATM   87 C87  LIG A   1       3.636   2.993  18.945  1.00  0.00    -0.015  C
HETATM   88 C88  LIG A   1       3.533   4.196  17.985  1.00  0.00    -0.060  C
HETATM   89 C89  LIG A   1       2.230   2.415  19.249  1.00  0.00    -0.051  C
HETATM   90 C90  LIG A   1       1.337   3.382  20.032  1.00  0.00    -0.065  C
HETATM   91 N91  LIG A   1       6.805   2.866  19.096  1.00  0.00    -0.343  N
HETATM   92 C92  LIG A   1       8.106   3.487  18.824  1.00  0.00     0.105  C
HETATM   93 C93  LIG A   1       9.127   2.442  18.466  1.00  0.00     0.243  C
HETATM   94 O94  LIG A   1       9.925   2.663  17.516  1.00  0.00    -0.273  O
HETATM   95 C95  LIG A   1       8.584   4.281  20.041  1.00  0.00    -0.036  C
HETATM   96 N96  LIG A   1       9.246   1.239  19.242  1.00  0.00    -0.340  N
HETATM   97 C97  LIG A   1      10.324   0.268  19.031  1.00  0.00     0.131  C
HETATM   98 C98  LIG A   1       9.935  -0.693  17.935  1.00  0.00     0.245  C
HETATM   99 O99  LIG A   1       9.329  -1.761  18.223  1.00  0.00    -0.273  O
HETATM  100 C100 LIG A   1      10.638  -0.466  20.343  1.00  0.00     0.072  C
HETATM  101 O101 LIG A   1      11.094   0.448  21.300  1.00  0.00    -0.394  O
HETATM  102 N102 LIG A   1      10.180  -0.361  16.560  1.00  0.00    -0.342  N
HETATM  103 C103 LIG A   1       9.270  -0.813  15.506  1.00  0.00     0.113  C
HETATM  104 C104 LIG A   1       9.977  -0.881  14.174  1.00  0.00     0.243  C
HETATM  105 O105 LIG A   1      10.157  -2.005  13.631  1.00  0.00    -0.273  O
HETATM  106 C106 LIG A   1       8.048   0.124  15.453  1.00  0.00     0.021  C
HETATM  107 C107 LIG A   1       6.984  -0.338  14.497  1.00  0.00     0.061  C
HETATM  108 N108 LIG A   1       6.845  -1.603  14.047  1.00  0.00    -0.242  N
HETATM  109 C109 LIG A   1       5.935   0.431  14.047  1.00  0.00     0.024  C
HETATM  110 C110 LIG A   1       5.720  -1.564  13.305  1.00  0.00     0.092  C
HETATM  111 N111 LIG A   1       5.148  -0.345  13.288  1.00  0.00    -0.351  N
HETATM  112 N112 LIG A   1      10.413   0.312  13.505  1.00  0.00    -0.341  N
HETATM  113 C113 LIG A   1      10.420   0.419  12.041  1.00  0.00     0.127  C
HETATM  114 C114 LIG A   1      11.564   1.280  11.570  1.00  0.00     0.326  C
HETATM  115 O115 LIG A   1      12.656   1.283  12.195  1.00  0.00    -0.250  O
HETATM  116 C116 LIG A   1       9.052   0.933  11.539  1.00  0.00    -0.020  C
HETATM  117 C117 LIG A   1       8.710   2.355  12.026  1.00  0.00    -0.033  C
HETATM  118 C118 LIG A   1       7.383   2.841  11.434  1.00  0.00     0.018  C
HETATM  119 N119 LIG A   1       7.202   4.271  11.679  1.00  0.00    -0.357  N
HETATM  120 C120 LIG A   1       6.908   4.826  12.970  1.00  0.00     0.185  C
HETATM  121 N121 LIG A   1       6.792   4.055  14.004  1.00  0.00    -0.270  N
HETATM  122 N122 LIG A   1       6.737   6.238  13.109  1.00  0.00    -0.370  N
HETATM  123 O123 LIG A   1      11.448   2.015  10.393  1.00  0.00    -0.480  O
ENDROOT
TORSDOF 0
                                                                                                                              
ENDMDL
MODEL 2
REMARK VINA RESULT:    -8.641      2.112      2.839
REMARK INTER + INTRA:          -8.641
REMARK INTER:                  -8.641
REMARK INTRA:                   0.000
REMARK UNBOUND:                 0.000
ROOT
HETATM    1 N1   LIG A   1      20.328   3.567  13.581  1.00  0.00    -0.320  N
HETATM    2 C2   LIG A   1      20.078   2.392  14.417  1.00  0.00     0.084  C
HETATM    3 C3   LIG A   1      19.647   1.228  13.555  1.00  0.00     0.237  C
HETATM    4 O4   LIG A   1      18.496   1.232  13.038  1.00  0.00    -0.273  O
HETATM    5 C5   LIG A   1      19.005   2.687  15.485  1.00  0.00    -0.027  C
HETATM    6 C6   LIG A   1      19.486   3.591  16.645  1.00  0.00    -0.045  C
HETATM    7 C7   LIG A   1      18.498   3.500  17.818  1.00  0.00    -0.063  C
HETATM    8 C8   LIG A   1      19.640   5.057  16.213  1.00  0.00    -0.063  C
HETATM    9 N9   LIG A   1      20.556   0.145  13.304  1.00  0.00    -0.343  N
HETATM   10 C10  LIG A   1      20.221  -1.057  12.531  1.00  0.00     0.110  C
HETATM   11 C11  LIG A   1      19.946  -0.682  11.088  1.00  0.00     0.243  C
HETATM   12 O12  LIG A   1      20.934  -0.527  10.320  1.00  0.00    -0.273  O
HETATM   13 C13  LIG A   1      19.113  -1.906  13.228  1.00  0.00    -0.015  C
HETATM   14 C14  LIG A   1      18.856  -3.220  12.467  1.00  0.00    -0.060  C
HETATM   15 C15  LIG A   1      19.419  -2.180  14.724  1.00  0.00    -0.051  C
HETATM   16 C16  LIG A   1      20.714  -2.954  14.983  1.00  0.00    -0.065  C
HETATM   17 N17  LIG A   1      18.615  -0.446  10.591  1.00  0.00    -0.340  N
HETATM   18 C18  LIG A   1      18.360   0.005   9.220  1.00  0.00     0.131  C
HETATM   19 C19  LIG A   1      18.136   1.496   9.206  1.00  0.00     0.245  C
HETATM   20 O20  LIG A   1      18.877   2.216   8.482  1.00  0.00    -0.273  O
HETATM   21 C21  LIG A   1      17.165  -0.751   8.633  1.00  0.00     0.072  C
HETATM   22 O22  LIG A   1      16.975  -0.384   7.294  1.00  0.00    -0.394  O
HETATM   23 N23  LIG A   1      17.097   2.098  10.000  1.00  0.00    -0.342  N
HETATM   24 C24  LIG A   1      16.804   3.536   9.954  1.00  0.00     0.116  C
HETATM   25 C25  LIG A   1      16.470   4.043  11.333  1.00  0.00     0.243  C
HETATM   26 O26  LIG A   1      17.295   4.786  11.930  1.00  0.00    -0.273  O
HETATM   27 C27  LIG A   1      15.653   3.827   8.972  1.00  0.00     0.056  C
HETATM   28 C28  LIG A   1      16.078   3.619   7.548  1.00  0.00     0.220  C
HETATM   29 O29  LIG A   1      16.828   4.466   6.992  1.00  0.00    -0.275  O
HETATM   30 N30  LIG A   1      15.662   2.462   6.825  1.00  0.00    -0.370  N
HETATM   31 N31  LIG A   1      15.228   3.698  11.967  1.00  0.00    -0.340  N
HETATM   32 C32  LIG A   1      14.748   4.386  13.174  1.00  0.00     0.134  C
HETATM   33 C33  LIG A   1      15.128   3.608  14.409  1.00  0.00     0.245  C
HETATM   34 O34  LIG A   1      15.616   4.224  15.395  1.00  0.00    -0.273  O
HETATM   35 C35  LIG A   1      13.225   4.629  13.111  1.00  0.00     0.080  C
HETATM   36 O36  LIG A   1      12.542   3.411  12.976  1.00  0.00    -0.391  O
HETATM   37 C37  LIG A   1      12.860   5.558  11.946  1.00  0.00    -0.036  C
HETATM   38 N38  LIG A   1      14.914   2.190  14.480  1.00  0.00    -0.342  N
HETATM   39 C39  LIG A   1      15.329   1.387  15.637  1.00  0.00     0.108  C
HETATM   40 C40  LIG A   1      15.395  -0.076  15.267  1.00  0.00     0.243  C
HETATM   41 O41  LIG A   1      16.446  -0.725  15.514  1.00  0.00    -0.273  O
HETATM   42 C42  LIG A   1      14.365   1.598  16.821  1.00  0.00    -0.024  C
HETATM   43 C43  LIG A   1      14.967   1.093  18.140  1.00  0.00    -0.050  C
HETATM   44 C44  LIG A   1      13.964   1.226  19.290  1.00  0.00    -0.041  C
HETATM   45 C45  LIG A   1      14.571   0.762  20.615  1.00  0.00    -0.008  C
HETATM   46 N46  LIG A   1      13.552   0.774  21.660  1.00  0.00    -0.330  N
HETATM   47 N47  LIG A   1      14.255  -0.725  14.678  1.00  0.00    -0.343  N
HETATM   48 C48  LIG A   1      14.136  -2.163  14.419  1.00  0.00     0.108  C
HETATM   49 C49  LIG A   1      13.957  -2.895  15.723  1.00  0.00     0.243  C
HETATM   50 O50  LIG A   1      14.950  -3.108  16.471  1.00  0.00    -0.273  O
HETATM   51 C51  LIG A   1      15.316  -2.701  13.578  1.00  0.00    -0.024  C
HETATM   52 C52  LIG A   1      14.977  -4.020  12.854  1.00  0.00    -0.050  C
HETATM   53 C53  LIG A   1      14.159  -3.829  11.563  1.00  0.00    -0.041  C
HETATM   54 C54  LIG A   1      15.007  -3.295  10.401  1.00  0.00    -0.008  C
HETATM   55 N55  LIG A   1      14.205  -3.233   9.184  1.00  0.00    -0.330  N
HETATM   56 N56  LIG A   1      12.640  -3.272  16.153  1.00  0.00    -0.342  N
HETATM   57 C57  LIG A   1      12.321  -3.507  17.565  1.00  0.00     0.112  C
HETATM   58 C58  LIG A   1      10.961  -4.154  17.694  1.00  0.00     0.243  C
HETATM   59 O59  LIG A   1      10.853  -5.238  18.331  1.00  0.00    -0.273  O
HETATM   60 C60  LIG A   1      12.376  -2.177  18.339  1.00  0.00     0.002  C
HETATM   61 C61  LIG A   1      12.222  -2.382  19.824  1.00  0.00    -0.045  C
HETATM   62 C62  LIG A   1      13.342  -2.696  20.611  1.00  0.00    -0.059  C
HETATM   63 C63  LIG A   1      10.957  -2.291  20.430  1.00  0.00    -0.059  C
HETATM   64 C64  LIG A   1      13.202  -2.884  21.990  1.00  0.00    -0.062  C
HETATM   65 C65  LIG A   1      10.822  -2.482  21.808  1.00  0.00    -0.062  C
HETATM   66 C66  LIG A   1      11.944  -2.773  22.588  1.00  0.00    -0.062  C
HETATM   67 N67  LIG A   1       9.799  -3.534  17.124  1.00  0.00    -0.345  N
HETATM   68 C68  LIG A   1       8.465  -4.114  17.270  1.00  0.00     0.097  C
HETATM   69 C69  LIG A   1       7.506  -3.485  16.302  1.00  0.00     0.240  C
HETATM   70 O70  LIG A   1       7.802  -3.458  15.077  1.00  0.00    -0.273  O
HETATM   71 N71  LIG A   1       6.251  -2.951  16.758  1.00  0.00    -0.341  N
HETATM   72 C72  LIG A   1       5.345  -2.204  15.883  1.00  0.00     0.134  C
HETATM   73 C73  LIG A   1       5.456  -0.733  16.212  1.00  0.00     0.245  C
HETATM   74 O74  LIG A   1       6.329  -0.059  15.606  1.00  0.00    -0.273  O
HETATM   75 C75  LIG A   1       3.916  -2.786  15.972  1.00  0.00     0.080  C
HETATM   76 O76  LIG A   1       3.960  -4.141  15.602  1.00  0.00    -0.391  O
HETATM   77 C77  LIG A   1       2.944  -2.045  15.044  1.00  0.00    -0.036  C
HETATM   78 N78  LIG A   1       4.652  -0.106  17.231  1.00  0.00    -0.343  N
HETATM   79 C79  LIG A   1       4.818   1.295  17.644  1.00  0.00     0.105  C
HETATM   80 C80  LIG A   1       4.694   2.244  16.467  1.00  0.00     0.242  C
HETATM   81 O81  LIG A   1       4.120   1.860  15.412  1.00  0.00    -0.273  O
HETATM   82 C82  LIG A   1       6.158   1.461  18.373  1.00  0.00    -0.036  C
HETATM   83 N83  LIG A   1       5.160   3.598  16.569  1.00  0.00    -0.342  N
HETATM   84 C84  LIG A   1       5.547   4.390  15.396  1.00  0.00     0.110  C
HETATM   85 C85  LIG A   1       7.053   4.444  15.319  1.00  0.00     0.243  C
HETATM   86 O86  LIG A   1       7.629   4.055  14.267  1.00  0.00    -0.273  O
HETATM   87 C87  LIG A   1       4.917   5.812  15.463  1.00  0.00    -0.015  C
HETATM   88 C88  LIG A   1       5.345   6.659  14.247  1.00  0.00    -0.060  C
HETATM   89 C89  LIG A   1       3.372   5.714  15.545  1.00  0.00    -0.051  C
HETATM   90 C90  LIG A   1       2.697   7.059  15.829  1.00  0.00    -0.065  C
HETATM   91 N91  LIG A   1       7.827   4.966  16.410  1.00  0.00    -0.343  N
HETATM   92 C92  LIG A   1       9.282   5.138  16.322  1.00  0.00     0.105  C
HETATM   93 C93  LIG A   1       9.983   3.818  16.488  1.00  0.00     0.243  C
HETATM   94 O94  LIG A   1      10.956   3.542  15.737  1.00  0.00    -0.273  O
HETATM   95 C95  LIG A   1       9.768   6.119  17.391  1.00  0.00    -0.036  C
HETATM   96 N96  LIG A   1       9.601   2.913  17.536  1.00  0.00    -0.340  N
HETATM   97 C97  LIG A   1      10.354   1.690  17.834  1.00  0.00     0.131  C
HETATM   98 C98  LIG A   1       9.880   0.571  16.942  1.00  0.00     0.245  C
HETATM   99 O99  LIG A   1       8.940  -0.180  17.322  1.00  0.00    -0.273  O
HETATM  100 C100 LIG A   1      10.207   1.331  19.321  1.00  0.00     0.072  C
HETATM  101 O101 LIG A   1      10.753   2.350  20.111  1.00  0.00    -0.394  O
HETATM  102 N102 LIG A   1      10.439   0.404  15.630  1.00  0.00    -0.342  N
HETATM  103 C103 LIG A   1       9.623  -0.107  14.527  1.00  0.00     0.113  C
HETATM  104 C104 LIG A   1      10.487  -0.743  13.465  1.00  0.00     0.243  C
HETATM  105 O105 LIG A   1      10.406  -1.986  13.271  1.00  0.00    -0.273  O
HETATM  106 C106 LIG A   1       8.769   1.040  13.952  1.00  0.00     0.021  C
HETATM  107 C107 LIG A   1       7.789   0.587  12.906  1.00  0.00     0.061  C
HETATM  108 N108 LIG A   1       7.351  -0.681  12.755  1.00  0.00    -0.242  N
HETATM  109 C109 LIG A   1       7.113   1.417  12.042  1.00  0.00     0.024  C
HETATM  110 C110 LIG A   1       6.430  -0.592  11.773  1.00  0.00     0.092  C
HETATM  111 N111 LIG A   1       6.265   0.666  11.324  1.00  0.00    -0.351  N
HETATM  112 N112 LIG A   1      11.370   0.050  12.656  1.00  0.00    -0.341  N
HETATM  113 C113 LIG A   1      11.652  -0.293  11.257  1.00  0.00     0.127  C
HETATM  114 C114 LIG A   1      13.064   0.081  10.886  1.00  0.00     0.326  C
HETATM  115 O115 LIG A   1      13.986   0.003  11.739  1.00  0.00    -0.250  O
HETATM  116 C116 LIG A   1      10.607   0.365  10.327  1.00  0.00    -0.020  C
HETATM  117 C117 LIG A   1      10.636   1.906  10.358  1.00  0.00    -0.033  C
HETATM  118 C118 LIG A   1       9.637   2.500   9.360  1.00  0.00     0.018  C
HETATM  119 N119 LIG A   1       9.859   3.937   9.201  1.00  0.00    -0.357  N
HETATM  120 C120 LIG A   1       9.537   4.908  10.209  1.00  0.00     0.185  C
HETATM  121 N121 LIG A   1       9.022   4.536  11.337  1.00  0.00    -0.270  N
HETATM  122 N122 LIG A   1       9.781   6.294   9.957  1.00  0.00    -0.370  N
HETATM  123 O123 LIG A   1      13.374   0.433   9.575  1.00  0.00    -0.480  O
ENDROOT
TORSDOF 0
                                                                                                                              
ENDMDL
