MODEL 1
REMARK VINA RESULT:    -8.006      0.000      0.000
REMARK INTER + INTRA:          -8.006
REMARK INTER:                  -8.006
REMARK INTRA:                   0.000
REMARK UNBOUND:                 0.000
ROOT
HETATM    1 N1   LIG A   1      20.465  -6.796  14.720  1.00  0.00    -0.320  N
HETATM    2 C2   LIG A   1      21.422  -5.785  15.186  1.00  0.00     0.087  C
HETATM    3 C3   LIG A   1      22.226  -5.239  14.031  1.00  0.00     0.237  C
HETATM    4 O4   LIG A   1      22.673  -4.062  14.101  1.00  0.00    -0.273  O
HETATM    5 C5   LIG A   1      22.355  -6.347  16.299  1.00  0.00    -0.020  C
HETATM    6 C6   LIG A   1      21.585  -6.528  17.619  1.00  0.00    -0.061  C
HETATM    7 C7   LIG A   1      23.055  -7.660  15.866  1.00  0.00    -0.052  C
HETATM    8 C8   LIG A   1      24.133  -8.116  16.851  1.00  0.00    -0.065  C
HETATM    9 N9   LIG A   1      22.510  -6.045  12.874  1.00  0.00    -0.341  N
HETATM   10 C10  LIG A   1      23.052  -5.465  11.642  1.00  0.00     0.131  C
HETATM   11 C11  LIG A   1      22.059  -4.495  11.059  1.00  0.00     0.245  C
HETATM   12 O12  LIG A   1      22.462  -3.383  10.621  1.00  0.00    -0.273  O
HETATM   13 C13  LIG A   1      23.381  -6.570  10.627  1.00  0.00     0.072  C
HETATM   14 O14  LIG A   1      24.032  -6.037   9.505  1.00  0.00    -0.394  O
HETATM   15 N15  LIG A   1      20.667  -4.840  10.988  1.00  0.00    -0.342  N
HETATM   16 C16  LIG A   1      19.633  -3.853  10.667  1.00  0.00     0.108  C
HETATM   17 C17  LIG A   1      19.347  -3.033  11.901  1.00  0.00     0.243  C
HETATM   18 O18  LIG A   1      18.551  -3.470  12.777  1.00  0.00    -0.273  O
HETATM   19 C19  LIG A   1      18.354  -4.554  10.155  1.00  0.00    -0.021  C
HETATM   20 C20  LIG A   1      18.567  -5.385   8.865  1.00  0.00    -0.045  C
HETATM   21 C21  LIG A   1      17.394  -6.356   8.664  1.00  0.00    -0.063  C
HETATM   22 C22  LIG A   1      18.719  -4.493   7.626  1.00  0.00    -0.063  C
HETATM   23 N23  LIG A   1      20.057  -1.807  12.127  1.00  0.00    -0.343  N
HETATM   24 C24  LIG A   1      20.144  -1.181  13.453  1.00  0.00     0.105  C
HETATM   25 C25  LIG A   1      19.086  -0.123  13.620  1.00  0.00     0.242  C
HETATM   26 O26  LIG A   1      18.568   0.406  12.599  1.00  0.00    -0.273  O
HETATM   27 C27  LIG A   1      21.531  -0.564  13.644  1.00  0.00    -0.036  C
HETATM   28 N28  LIG A   1      18.722   0.318  14.942  1.00  0.00    -0.342  N
HETATM   29 C29  LIG A   1      17.926   1.518  15.256  1.00  0.00     0.110  C
HETATM   30 C30  LIG A   1      16.733   1.653  14.331  1.00  0.00     0.246  C
HETATM   31 O31  LIG A   1      16.658   2.617  13.523  1.00  0.00    -0.272  O
HETATM   32 C32  LIG A   1      18.817   2.796  15.350  1.00  0.00    -0.015  C
HETATM   33 C33  LIG A   1      19.703   2.732  16.608  1.00  0.00    -0.060  C
HETATM   34 C34  LIG A   1      19.684   3.032  14.087  1.00  0.00    -0.051  C
HETATM   35 C35  LIG A   1      20.180   4.474  13.970  1.00  0.00    -0.065  C
HETATM   36 N36  LIG A   1      15.699   0.657  14.333  1.00  0.00    -0.329  N
HETATM   37 C37  LIG A   1      14.981   0.251  13.134  1.00  0.00     0.111  C
HETATM   38 C38  LIG A   1      13.939   1.269  12.750  1.00  0.00     0.243  C
HETATM   39 O39  LIG A   1      13.660   2.217  13.535  1.00  0.00    -0.273  O
HETATM   40 C40  LIG A   1      14.323  -1.076  13.514  1.00  0.00    -0.022  C
HETATM   41 C41  LIG A   1      14.208  -1.039  15.031  1.00  0.00    -0.033  C
HETATM   42 C42  LIG A   1      15.325  -0.119  15.501  1.00  0.00     0.021  C
HETATM   43 N43  LIG A   1      13.229   1.125  11.511  1.00  0.00    -0.343  N
HETATM   44 C44  LIG A   1      12.144   2.033  11.120  1.00  0.00     0.108  C
HETATM   45 C45  LIG A   1      11.002   1.995  12.104  1.00  0.00     0.243  C
HETATM   46 O46  LIG A   1      10.868   1.015  12.884  1.00  0.00    -0.273  O
HETATM   47 C47  LIG A   1      11.679   1.791   9.662  1.00  0.00    -0.021  C
HETATM   48 C48  LIG A   1      10.722   0.595   9.428  1.00  0.00    -0.045  C
HETATM   49 C49  LIG A   1      10.240   0.598   7.970  1.00  0.00    -0.063  C
HETATM   50 C50  LIG A   1      11.381  -0.747   9.751  1.00  0.00    -0.063  C
HETATM   51 N51  LIG A   1      10.034   3.054  12.113  1.00  0.00    -0.343  N
HETATM   52 C52  LIG A   1       9.731   3.902  13.276  1.00  0.00     0.105  C
HETATM   53 C53  LIG A   1      10.388   5.248  13.107  1.00  0.00     0.243  C
HETATM   54 O54  LIG A   1       9.669   6.284  13.088  1.00  0.00    -0.273  O
HETATM   55 C55  LIG A   1      10.120   3.267  14.618  1.00  0.00    -0.036  C
HETATM   56 N56  LIG A   1      11.813   5.358  12.957  1.00  0.00    -0.340  N
HETATM   57 C57  LIG A   1      12.487   6.600  12.554  1.00  0.00     0.131  C
HETATM   58 C58  LIG A   1      12.936   6.526  11.105  1.00  0.00     0.245  C
HETATM   59 O59  LIG A   1      13.798   7.346  10.685  1.00  0.00    -0.273  O
HETATM   60 C60  LIG A   1      13.663   6.852  13.509  1.00  0.00     0.072  C
HETATM   61 O61  LIG A   1      14.200   8.130  13.299  1.00  0.00    -0.394  O
HETATM   62 N62  LIG A   1      12.328   5.599  10.186  1.00  0.00    -0.342  N
HETATM   63 C63  LIG A   1      12.681   5.478   8.765  1.00  0.00     0.108  C
HETATM   64 C64  LIG A   1      14.175   5.316   8.584  1.00  0.00     0.243  C
HETATM   65 O65  LIG A   1      14.830   6.172   7.928  1.00  0.00    -0.273  O
HETATM   66 C66  LIG A   1      12.103   6.658   7.953  1.00  0.00    -0.024  C
HETATM   67 C67  LIG A   1      10.561   6.738   8.006  1.00  0.00    -0.050  C
HETATM   68 C68  LIG A   1       9.856   6.142   6.773  1.00  0.00    -0.041  C
HETATM   69 C69  LIG A   1       9.920   4.609   6.701  1.00  0.00    -0.008  C
HETATM   70 N70  LIG A   1      11.169   4.167   6.088  1.00  0.00    -0.330  N
HETATM   71 N71  LIG A   1      14.846   4.181   9.157  1.00  0.00    -0.342  N
HETATM   72 C72  LIG A   1      16.278   3.920   8.975  1.00  0.00     0.110  C
HETATM   73 C73  LIG A   1      16.456   2.626   8.218  1.00  0.00     0.243  C
HETATM   74 O74  LIG A   1      17.030   2.653   7.094  1.00  0.00    -0.273  O
HETATM   75 C75  LIG A   1      17.027   3.882  10.339  1.00  0.00    -0.015  C
HETATM   76 C76  LIG A   1      18.549   3.789  10.127  1.00  0.00    -0.060  C
HETATM   77 C77  LIG A   1      16.667   5.067  11.272  1.00  0.00    -0.051  C
HETATM   78 C78  LIG A   1      17.099   6.442  10.757  1.00  0.00    -0.065  C
HETATM   79 N79  LIG A   1      16.000   1.373   8.761  1.00  0.00    -0.340  N
HETATM   80 C80  LIG A   1      16.554   0.093   8.312  1.00  0.00     0.131  C
HETATM   81 C81  LIG A   1      15.481  -0.975   8.284  1.00  0.00     0.245  C
HETATM   82 O82  LIG A   1      14.889  -1.204   7.194  1.00  0.00    -0.273  O
HETATM   83 C83  LIG A   1      17.755  -0.291   9.189  1.00  0.00     0.072  C
HETATM   84 O84  LIG A   1      18.321  -1.492   8.747  1.00  0.00    -0.394  O
HETATM   85 N85  LIG A   1      15.115  -1.720   9.458  1.00  0.00    -0.345  N
HETATM   86 C86  LIG A   1      14.425  -3.007   9.342  1.00  0.00     0.097  C
HETATM   87 C87  LIG A   1      14.000  -3.521  10.688  1.00  0.00     0.240  C
HETATM   88 O88  LIG A   1      12.952  -3.065  11.216  1.00  0.00    -0.273  O
HETATM   89 N89  LIG A   1      14.773  -4.525  11.361  1.00  0.00    -0.342  N
HETATM   90 C90  LIG A   1      14.319  -5.179  12.596  1.00  0.00     0.112  C
HETATM   91 C91  LIG A   1      15.481  -5.402  13.531  1.00  0.00     0.243  C
HETATM   92 O92  LIG A   1      16.569  -5.854  13.081  1.00  0.00    -0.273  O
HETATM   93 C93  LIG A   1      13.667  -6.533  12.275  1.00  0.00     0.002  C
HETATM   94 C94  LIG A   1      12.403  -6.371  11.471  1.00  0.00    -0.045  C
HETATM   95 C95  LIG A   1      12.428  -6.493  10.071  1.00  0.00    -0.059  C
HETATM   96 C96  LIG A   1      11.191  -6.076  12.117  1.00  0.00    -0.059  C
HETATM   97 C97  LIG A   1      11.250  -6.349   9.333  1.00  0.00    -0.062  C
HETATM   98 C98  LIG A   1      10.013  -5.952  11.376  1.00  0.00    -0.062  C
HETATM   99 C99  LIG A   1      10.042  -6.089   9.985  1.00  0.00    -0.062  C
HETATM  100 N100 LIG A   1      15.309  -5.211  14.944  1.00  0.00    -0.340  N
HETATM  101 C101 LIG A   1      16.305  -5.666  15.927  1.00  0.00     0.134  C
HETATM  102 C102 LIG A   1      15.682  -5.828  17.296  1.00  0.00     0.245  C
HETATM  103 O103 LIG A   1      15.947  -6.868  17.961  1.00  0.00    -0.273  O
HETATM  104 C104 LIG A   1      17.565  -4.760  15.940  1.00  0.00     0.080  C
HETATM  105 O105 LIG A   1      18.456  -5.151  16.955  1.00  0.00    -0.391  O
HETATM  106 C106 LIG A   1      17.262  -3.260  16.027  1.00  0.00    -0.036  C
HETATM  107 N107 LIG A   1      14.824  -4.823  17.861  1.00  0.00    -0.342  N
HETATM  108 C108 LIG A   1      14.103  -5.049  19.118  1.00  0.00     0.108  C
HETATM  109 C109 LIG A   1      13.039  -6.095  18.900  1.00  0.00     0.243  C
HETATM  110 O110 LIG A   1      13.015  -7.116  19.641  1.00  0.00    -0.273  O
HETATM  111 C111 LIG A   1      13.473  -3.732  19.624  1.00  0.00    -0.021  C
HETATM  112 C112 LIG A   1      12.871  -3.845  21.048  1.00  0.00    -0.045  C
HETATM  113 C113 LIG A   1      13.964  -3.765  22.124  1.00  0.00    -0.063  C
HETATM  114 C114 LIG A   1      11.830  -2.743  21.279  1.00  0.00    -0.063  C
HETATM  115 N115 LIG A   1      12.048  -5.920  17.876  1.00  0.00    -0.343  N
HETATM  116 C116 LIG A   1      10.828  -6.735  17.827  1.00  0.00     0.105  C
HETATM  117 C117 LIG A   1      10.151  -6.646  16.481  1.00  0.00     0.242  C
HETATM  118 O118 LIG A   1      10.276  -5.612  15.771  1.00  0.00    -0.273  O
HETATM  119 C119 LIG A   1       9.863  -6.293  18.929  1.00  0.00    -0.036  C
HETATM  120 N120 LIG A   1       9.300  -7.716  16.044  1.00  0.00    -0.343  N
HETATM  121 C121 LIG A   1       8.575  -7.674  14.767  1.00  0.00     0.108  C
HETATM  122 C122 LIG A   1       7.412  -6.713  14.831  1.00  0.00     0.243  C
HETATM  123 O123 LIG A   1       6.900  -6.312  13.752  1.00  0.00    -0.273  O
HETATM  124 C124 LIG A   1       8.073  -9.078  14.370  1.00  0.00    -0.021  C
HETATM  125 C125 LIG A   1       9.211 -10.104  14.136  1.00  0.00    -0.045  C
HETATM  126 C126 LIG A   1      10.071  -9.743  12.912  1.00  0.00    -0.063  C
HETATM  127 C127 LIG A   1       8.617 -11.506  13.959  1.00  0.00    -0.063  C
HETATM  128 N128 LIG A   1       6.864  -6.282  16.089  1.00  0.00    -0.342  N
HETATM  129 C129 LIG A   1       5.940  -5.145  16.203  1.00  0.00     0.110  C
HETATM  130 C130 LIG A   1       6.384  -4.228  17.322  1.00  0.00     0.243  C
HETATM  131 O131 LIG A   1       6.879  -4.722  18.371  1.00  0.00    -0.273  O
HETATM  132 C132 LIG A   1       4.480  -5.645  16.365  1.00  0.00    -0.018  C
HETATM  133 C133 LIG A   1       4.255  -6.458  17.650  1.00  0.00    -0.060  C
HETATM  134 C134 LIG A   1       3.472  -4.490  16.287  1.00  0.00    -0.060  C
HETATM  135 N135 LIG A   1       6.221  -2.803  17.194  1.00  0.00    -0.343  N
HETATM  136 C136 LIG A   1       6.912  -1.793  18.011  1.00  0.00     0.108  C
HETATM  137 C137 LIG A   1       8.389  -1.802  17.709  1.00  0.00     0.243  C
HETATM  138 O138 LIG A   1       9.032  -2.882  17.787  1.00  0.00    -0.273  O
HETATM  139 C139 LIG A   1       6.609  -1.965  19.518  1.00  0.00    -0.024  C
HETATM  140 C140 LIG A   1       7.030  -0.750  20.371  1.00  0.00    -0.050  C
HETATM  141 C141 LIG A   1       8.446  -0.898  20.950  1.00  0.00    -0.041  C
HETATM  142 C142 LIG A   1       8.830   0.322  21.791  1.00  0.00    -0.008  C
HETATM  143 N143 LIG A   1      10.188   0.172  22.302  1.00  0.00    -0.330  N
HETATM  144 N144 LIG A   1       9.061  -0.584  17.337  1.00  0.00    -0.342  N
HETATM  145 C145 LIG A   1      10.415  -0.551  16.768  1.00  0.00     0.116  C
HETATM  146 C146 LIG A   1      10.474  -1.463  15.566  1.00  0.00     0.243  C
HETATM  147 O147 LIG A   1      11.209  -2.489  15.566  1.00  0.00    -0.273  O
HETATM  148 C148 LIG A   1      11.471  -0.875  17.851  1.00  0.00     0.056  C
HETATM  149 C149 LIG A   1      11.733   0.290  18.765  1.00  0.00     0.220  C
HETATM  150 O150 LIG A   1      10.788   1.039  19.131  1.00  0.00    -0.275  O
HETATM  151 N151 LIG A   1      13.047   0.517  19.275  1.00  0.00    -0.370  N
HETATM  152 N152 LIG A   1       9.620  -1.189  14.446  1.00  0.00    -0.343  N
HETATM  153 C153 LIG A   1       9.281  -2.221  13.461  1.00  0.00     0.105  C
HETATM  154 C154 LIG A   1       8.687  -1.627  12.205  1.00  0.00     0.243  C
HETATM  155 O155 LIG A   1       8.183  -0.469  12.216  1.00  0.00    -0.273  O
HETATM  156 C156 LIG A   1       8.282  -3.200  14.076  1.00  0.00    -0.036  C
HETATM  157 N157 LIG A   1       8.609  -2.427  11.017  1.00  0.00    -0.340  N
HETATM  158 C158 LIG A   1       7.734  -2.076   9.893  1.00  0.00     0.131  C
HETATM  159 C159 LIG A   1       6.289  -2.147  10.316  1.00  0.00     0.245  C
HETATM  160 O160 LIG A   1       5.487  -1.256   9.920  1.00  0.00    -0.273  O
HETATM  161 C161 LIG A   1       7.982  -3.017   8.707  1.00  0.00     0.072  C
HETATM  162 O162 LIG A   1       7.268  -2.571   7.587  1.00  0.00    -0.394  O
HETATM  163 N163 LIG A   1       5.815  -3.239  11.123  1.00  0.00    -0.339  N
HETATM  164 C164 LIG A   1       4.410  -3.361  11.528  1.00  0.00     0.153  C
HETATM  165 C165 LIG A   1       4.073  -2.251  12.487  1.00  0.00     0.328  C
HETATM  166 O166 LIG A   1       3.076  -1.512  12.269  1.00  0.00    -0.250  O
HETATM  167 C167 LIG A   1       4.147  -4.743  12.170  1.00  0.00     0.082  C
HETATM  168 O168 LIG A   1       4.570  -5.750  11.286  1.00  0.00    -0.391  O
HETATM  169 C169 LIG A   1       2.661  -4.950  12.488  1.00  0.00    -0.036  C
HETATM  170 O170 LIG A   1       4.853  -2.048  13.620  1.00  0.00    -0.480  O
ENDROOT
TORSDOF 0
                                                                                                                                                                             
ENDMDL
MODEL 2
REMARK VINA RESULT:    -6.782      2.524      3.777
REMARK INTER + INTRA:          -6.782
REMARK INTER:                  -6.782
REMARK INTRA:                   0.000
REMARK UNBOUND:                 0.000
ROOT
HETATM    1 N1   LIG A   1      19.583  -3.020  12.647  1.00  0.00    -0.320  N
HETATM    2 C2   LIG A   1      20.174  -1.853  13.312  1.00  0.00     0.087  C
HETATM    3 C3   LIG A   1      20.698  -0.868  12.295  1.00  0.00     0.237  C
HETATM    4 O4   LIG A   1      20.736   0.357  12.593  1.00  0.00    -0.273  O
HETATM    5 C5   LIG A   1      21.292  -2.267  14.314  1.00  0.00    -0.020  C
HETATM    6 C6   LIG A   1      20.688  -2.933  15.564  1.00  0.00    -0.061  C
HETATM    7 C7   LIG A   1      22.364  -3.170  13.652  1.00  0.00    -0.052  C
HETATM    8 C8   LIG A   1      23.576  -3.415  14.551  1.00  0.00    -0.065  C
HETATM    9 N9   LIG A   1      21.176  -1.306  11.011  1.00  0.00    -0.341  N
HETATM   10 C10  LIG A   1      21.439  -0.364   9.921  1.00  0.00     0.131  C
HETATM   11 C11  LIG A   1      20.155   0.311   9.514  1.00  0.00     0.245  C
HETATM   12 O12  LIG A   1      20.148   1.555   9.302  1.00  0.00    -0.273  O
HETATM   13 C13  LIG A   1      22.065  -1.090   8.721  1.00  0.00     0.072  C
HETATM   14 O14  LIG A   1      22.450  -0.174   7.730  1.00  0.00    -0.394  O
HETATM   15 N15  LIG A   1      18.953  -0.457   9.356  1.00  0.00    -0.342  N
HETATM   16 C16  LIG A   1      17.638   0.171   9.211  1.00  0.00     0.108  C
HETATM   17 C17  LIG A   1      17.156   0.608  10.572  1.00  0.00     0.243  C
HETATM   18 O18  LIG A   1      16.591  -0.221  11.337  1.00  0.00    -0.273  O
HETATM   19 C19  LIG A   1      16.639  -0.808   8.553  1.00  0.00    -0.021  C
HETATM   20 C20  LIG A   1      17.051  -1.269   7.134  1.00  0.00    -0.045  C
HETATM   21 C21  LIG A   1      16.255  -2.520   6.733  1.00  0.00    -0.063  C
HETATM   22 C22  LIG A   1      16.843  -0.166   6.088  1.00  0.00    -0.063  C
HETATM   23 N23  LIG A   1      17.433   1.937  11.038  1.00  0.00    -0.343  N
HETATM   24 C24  LIG A   1      17.372   2.301  12.459  1.00  0.00     0.105  C
HETATM   25 C25  LIG A   1      16.033   2.897  12.805  1.00  0.00     0.242  C
HETATM   26 O26  LIG A   1      15.322   3.402  11.895  1.00  0.00    -0.273  O
HETATM   27 C27  LIG A   1      18.485   3.297  12.787  1.00  0.00    -0.036  C
HETATM   28 N28  LIG A   1      15.607   2.941  14.181  1.00  0.00    -0.342  N
HETATM   29 C29  LIG A   1      14.476   3.729  14.703  1.00  0.00     0.110  C
HETATM   30 C30  LIG A   1      13.263   3.628  13.800  1.00  0.00     0.246  C
HETATM   31 O31  LIG A   1      12.836   4.643  13.187  1.00  0.00    -0.272  O
HETATM   32 C32  LIG A   1      14.900   5.190  15.051  1.00  0.00    -0.015  C
HETATM   33 C33  LIG A   1      15.816   5.194  16.290  1.00  0.00    -0.060  C
HETATM   34 C34  LIG A   1      15.580   5.929  13.870  1.00  0.00    -0.051  C
HETATM   35 C35  LIG A   1      15.567   7.449  14.037  1.00  0.00    -0.065  C
HETATM   36 N36  LIG A   1      12.616   2.363  13.596  1.00  0.00    -0.329  N
HETATM   37 C37  LIG A   1      12.016   1.969  12.329  1.00  0.00     0.111  C
HETATM   38 C38  LIG A   1      10.679   2.635  12.127  1.00  0.00     0.243  C
HETATM   39 O39  LIG A   1      10.142   3.275  13.073  1.00  0.00    -0.273  O
HETATM   40 C40  LIG A   1      11.850   0.453  12.441  1.00  0.00    -0.022  C
HETATM   41 C41  LIG A   1      11.801   0.170  13.936  1.00  0.00    -0.033  C
HETATM   42 C42  LIG A   1      12.573   1.306  14.590  1.00  0.00     0.021  C
HETATM   43 N43  LIG A   1       9.999   2.494  10.872  1.00  0.00    -0.343  N
HETATM   44 C44  LIG A   1       8.658   3.045  10.642  1.00  0.00     0.108  C
HETATM   45 C45  LIG A   1       7.640   2.450  11.581  1.00  0.00     0.243  C
HETATM   46 O46  LIG A   1       7.874   1.355  12.159  1.00  0.00    -0.273  O
HETATM   47 C47  LIG A   1       8.231   2.935   9.156  1.00  0.00    -0.021  C
HETATM   48 C48  LIG A   1       7.711   1.554   8.684  1.00  0.00    -0.045  C
HETATM   49 C49  LIG A   1       7.187   1.664   7.245  1.00  0.00    -0.063  C
HETATM   50 C50  LIG A   1       8.790   0.472   8.759  1.00  0.00    -0.063  C
HETATM   51 N51  LIG A   1       6.379   3.106  11.774  1.00  0.00    -0.343  N
HETATM   52 C52  LIG A   1       5.870   3.576  13.071  1.00  0.00     0.105  C
HETATM   53 C53  LIG A   1       6.037   5.071  13.170  1.00  0.00     0.243  C
HETATM   54 O54  LIG A   1       5.017   5.794  13.336  1.00  0.00    -0.273  O
HETATM   55 C55  LIG A   1       6.509   2.871  14.275  1.00  0.00    -0.036  C
HETATM   56 N56  LIG A   1       7.338   5.674  13.068  1.00  0.00    -0.340  N
HETATM   57 C57  LIG A   1       7.545   7.120  12.918  1.00  0.00     0.131  C
HETATM   58 C58  LIG A   1       7.925   7.468  11.490  1.00  0.00     0.245  C
HETATM   59 O59  LIG A   1       8.448   8.590  11.247  1.00  0.00    -0.273  O
HETATM   60 C60  LIG A   1       8.617   7.569  13.923  1.00  0.00     0.072  C
HETATM   61 O61  LIG A   1       8.692   8.968  13.968  1.00  0.00    -0.394  O
HETATM   62 N62  LIG A   1       7.614   6.578  10.401  1.00  0.00    -0.342  N
HETATM   63 C63  LIG A   1       7.920   6.843   8.990  1.00  0.00     0.108  C
HETATM   64 C64  LIG A   1       9.373   7.224   8.807  1.00  0.00     0.243  C
HETATM   65 O65  LIG A   1       9.678   8.354   8.336  1.00  0.00    -0.273  O
HETATM   66 C66  LIG A   1       6.948   7.893   8.405  1.00  0.00    -0.024  C
HETATM   67 C67  LIG A   1       5.470   7.445   8.447  1.00  0.00    -0.050  C
HETATM   68 C68  LIG A   1       4.943   6.886   7.111  1.00  0.00    -0.041  C
HETATM   69 C69  LIG A   1       5.504   5.502   6.753  1.00  0.00    -0.008  C
HETATM   70 N70  LIG A   1       6.799   5.621   6.088  1.00  0.00    -0.330  N
HETATM   71 N71  LIG A   1      10.407   6.291   9.166  1.00  0.00    -0.342  N
HETATM   72 C72  LIG A   1      11.835   6.559   8.963  1.00  0.00     0.110  C
HETATM   73 C73  LIG A   1      12.393   5.560   7.977  1.00  0.00     0.243  C
HETATM   74 O74  LIG A   1      12.872   5.982   6.889  1.00  0.00    -0.273  O
HETATM   75 C75  LIG A   1      12.618   6.522  10.307  1.00  0.00    -0.015  C
HETATM   76 C76  LIG A   1      14.074   6.980  10.107  1.00  0.00    -0.060  C
HETATM   77 C77  LIG A   1      11.933   7.326  11.441  1.00  0.00    -0.051  C
HETATM   78 C78  LIG A   1      11.862   8.837  11.203  1.00  0.00    -0.065  C
HETATM   79 N79  LIG A   1      12.401   4.150   8.266  1.00  0.00    -0.340  N
HETATM   80 C80  LIG A   1      13.323   3.232   7.592  1.00  0.00     0.131  C
HETATM   81 C81  LIG A   1      12.662   1.892   7.344  1.00  0.00     0.245  C
HETATM   82 O82  LIG A   1      12.127   1.685   6.221  1.00  0.00    -0.273  O
HETATM   83 C83  LIG A   1      14.624   3.114   8.401  1.00  0.00     0.072  C
HETATM   84 O84  LIG A   1      15.533   2.273   7.749  1.00  0.00    -0.394  O
HETATM   85 N85  LIG A   1      12.618   0.866   8.350  1.00  0.00    -0.345  N
HETATM   86 C86  LIG A   1      12.385  -0.532   7.982  1.00  0.00     0.097  C
HETATM   87 C87  LIG A   1      12.217  -1.397   9.198  1.00  0.00     0.240  C
HETATM   88 O88  LIG A   1      11.103  -1.420   9.785  1.00  0.00    -0.273  O
HETATM   89 N89  LIG A   1      13.309  -2.192   9.683  1.00  0.00    -0.342  N
HETATM   90 C90  LIG A   1      13.154  -3.175  10.763  1.00  0.00     0.112  C
HETATM   91 C91  LIG A   1      14.367  -3.167  11.659  1.00  0.00     0.243  C
HETATM   92 O92  LIG A   1      15.521  -3.142  11.150  1.00  0.00    -0.273  O
HETATM   93 C93  LIG A   1      12.970  -4.586  10.181  1.00  0.00     0.002  C
HETATM   94 C94  LIG A   1      11.687  -4.708   9.401  1.00  0.00    -0.045  C
HETATM   95 C95  LIG A   1      11.684  -4.555   8.005  1.00  0.00    -0.059  C
HETATM   96 C96  LIG A   1      10.477  -4.957  10.071  1.00  0.00    -0.059  C
HETATM   97 C97  LIG A   1      10.491  -4.678   7.287  1.00  0.00    -0.062  C
HETATM   98 C98  LIG A   1       9.290  -5.097   9.347  1.00  0.00    -0.062  C
HETATM   99 C99  LIG A   1       9.297  -4.958   7.956  1.00  0.00    -0.062  C
HETATM  100 N100 LIG A   1      14.209  -3.308  13.080  1.00  0.00    -0.340  N
HETATM  101 C101 LIG A   1      15.344  -3.579  13.975  1.00  0.00     0.134  C
HETATM  102 C102 LIG A   1      14.875  -4.187  15.279  1.00  0.00     0.245  C
HETATM  103 O103 LIG A   1      15.498  -5.183  15.739  1.00  0.00    -0.273  O
HETATM  104 C104 LIG A   1      16.235  -2.325  14.181  1.00  0.00     0.080  C
HETATM  105 O105 LIG A   1      17.252  -2.577  15.119  1.00  0.00    -0.391  O
HETATM  106 C106 LIG A   1      15.459  -1.053  14.545  1.00  0.00    -0.036  C
HETATM  107 N107 LIG A   1      13.761  -3.646  16.009  1.00  0.00    -0.342  N
HETATM  108 C108 LIG A   1      13.215  -4.326  17.188  1.00  0.00     0.108  C
HETATM  109 C109 LIG A   1      12.546  -5.607  16.759  1.00  0.00     0.243  C
HETATM  110 O110 LIG A   1      12.894  -6.696  17.292  1.00  0.00    -0.273  O
HETATM  111 C111 LIG A   1      12.211  -3.410  17.923  1.00  0.00    -0.021  C
HETATM  112 C112 LIG A   1      11.748  -3.976  19.290  1.00  0.00    -0.045  C
HETATM  113 C113 LIG A   1      12.803  -3.738  20.380  1.00  0.00    -0.063  C
HETATM  114 C114 LIG A   1      10.415  -3.345  19.708  1.00  0.00    -0.063  C
HETATM  115 N115 LIG A   1      11.506  -5.586  15.769  1.00  0.00    -0.343  N
HETATM  116 C116 LIG A   1      10.621  -6.736  15.547  1.00  0.00     0.105  C
HETATM  117 C117 LIG A   1       9.890  -6.632  14.230  1.00  0.00     0.242  C
HETATM  118 O118 LIG A   1       9.634  -5.503  13.731  1.00  0.00    -0.273  O
HETATM  119 C119 LIG A   1       9.617  -6.851  16.695  1.00  0.00    -0.036  C
HETATM  120 N120 LIG A   1       9.418  -7.824  13.585  1.00  0.00    -0.343  N
HETATM  121 C121 LIG A   1       8.661  -7.791  12.326  1.00  0.00     0.108  C
HETATM  122 C122 LIG A   1       7.251  -7.300  12.551  1.00  0.00     0.243  C
HETATM  123 O123 LIG A   1       6.585  -6.900  11.559  1.00  0.00    -0.273  O
HETATM  124 C124 LIG A   1       8.631  -9.184  11.663  1.00  0.00    -0.021  C
HETATM  125 C125 LIG A   1      10.031  -9.711  11.258  1.00  0.00    -0.045  C
HETATM  126 C126 LIG A   1      10.666  -8.867  10.140  1.00  0.00    -0.063  C
HETATM  127 C127 LIG A   1       9.924 -11.173  10.809  1.00  0.00    -0.063  C
HETATM  128 N128 LIG A   1       6.651  -7.315  13.858  1.00  0.00    -0.342  N
HETATM  129 C129 LIG A   1       5.411  -6.591  14.171  1.00  0.00     0.110  C
HETATM  130 C130 LIG A   1       5.581  -5.801  15.450  1.00  0.00     0.243  C
HETATM  131 O131 LIG A   1       6.259  -6.286  16.394  1.00  0.00    -0.273  O
HETATM  132 C132 LIG A   1       4.206  -7.568  14.210  1.00  0.00    -0.018  C
HETATM  133 C133 LIG A   1       4.322  -8.632  15.314  1.00  0.00    -0.060  C
HETATM  134 C134 LIG A   1       2.872  -6.820  14.335  1.00  0.00    -0.060  C
HETATM  135 N135 LIG A   1       4.952  -4.513  15.591  1.00  0.00    -0.343  N
HETATM  136 C136 LIG A   1       5.310  -3.499  16.596  1.00  0.00     0.108  C
HETATM  137 C137 LIG A   1       6.691  -2.962  16.323  1.00  0.00     0.243  C
HETATM  138 O138 LIG A   1       7.657  -3.761  16.205  1.00  0.00    -0.273  O
HETATM  139 C139 LIG A   1       5.152  -4.036  18.037  1.00  0.00    -0.024  C
HETATM  140 C140 LIG A   1       5.188  -2.929  19.111  1.00  0.00    -0.050  C
HETATM  141 C141 LIG A   1       6.600  -2.703  19.676  1.00  0.00    -0.041  C
HETATM  142 C142 LIG A   1       6.600  -1.601  20.738  1.00  0.00    -0.008  C
HETATM  143 N143 LIG A   1       7.954  -1.382  21.235  1.00  0.00    -0.330  N
HETATM  144 N144 LIG A   1       6.906  -1.543  16.198  1.00  0.00    -0.342  N
HETATM  145 C145 LIG A   1       8.145  -0.958  15.669  1.00  0.00     0.116  C
HETATM  146 C146 LIG A   1       8.445  -1.561  14.317  1.00  0.00     0.243  C
HETATM  147 O147 LIG A   1       9.476  -2.266  14.136  1.00  0.00    -0.273  O
HETATM  148 C148 LIG A   1       9.299  -1.106  16.689  1.00  0.00     0.056  C
HETATM  149 C149 LIG A   1       9.205  -0.109  17.811  1.00  0.00     0.220  C
HETATM  150 O150 LIG A   1       8.085   0.202  18.296  1.00  0.00    -0.275  O
HETATM  151 N151 LIG A   1      10.394   0.443  18.377  1.00  0.00    -0.370  N
HETATM  152 N152 LIG A   1       7.496  -1.385  13.255  1.00  0.00    -0.343  N
HETATM  153 C153 LIG A   1       7.470  -2.272  12.087  1.00  0.00     0.105  C
HETATM  154 C154 LIG A   1       6.654  -1.689  10.956  1.00  0.00     0.243  C
HETATM  155 O155 LIG A   1       5.799  -0.787  11.178  1.00  0.00    -0.273  O
HETATM  156 C156 LIG A   1       6.879  -3.622  12.489  1.00  0.00    -0.036  C
HETATM  157 N157 LIG A   1       6.789  -2.236   9.637  1.00  0.00    -0.340  N
HETATM  158 C158 LIG A   1       5.795  -1.996   8.586  1.00  0.00     0.131  C
HETATM  159 C159 LIG A   1       4.475  -2.619   8.963  1.00  0.00     0.245  C
HETATM  160 O160 LIG A   1       3.407  -1.988   8.728  1.00  0.00    -0.273  O
HETATM  161 C161 LIG A   1       6.283  -2.565   7.248  1.00  0.00     0.072  C
HETATM  162 O162 LIG A   1       5.410  -2.184   6.219  1.00  0.00    -0.394  O
HETATM  163 N163 LIG A   1       4.426  -3.935   9.541  1.00  0.00    -0.339  N
HETATM  164 C164 LIG A   1       3.160  -4.589   9.891  1.00  0.00     0.153  C
HETATM  165 C165 LIG A   1       2.522  -3.851  11.037  1.00  0.00     0.328  C
HETATM  166 O166 LIG A   1       1.328  -3.458  10.946  1.00  0.00    -0.250  O
HETATM  167 C167 LIG A   1       3.398  -6.073  10.257  1.00  0.00     0.082  C
HETATM  168 O168 LIG A   1       4.086  -6.702   9.205  1.00  0.00    -0.391  O
HETATM  169 C169 LIG A   1       2.079  -6.817  10.504  1.00  0.00    -0.036  C
HETATM  170 O170 LIG A   1       3.244  -3.611  12.201  1.00  0.00    -0.480  O
ENDROOT
TORSDOF 0
                                                                                                                                                                             
ENDMDL
