MODEL 1
REMARK VINA RESULT:    -7.868      0.000      0.000
REMARK INTER + INTRA:          -7.868
REMARK INTER:                  -7.868
REMARK INTRA:                   0.000
REMARK UNBOUND:                 0.000
ROOT
HETATM    1 N1   LIG A   1      14.244   8.332  13.908  1.00  0.00    -0.320  N
HETATM    2 C2   LIG A   1      15.090   8.514  12.723  1.00  0.00     0.087  C
HETATM    3 C3   LIG A   1      16.550   8.365  13.082  1.00  0.00     0.237  C
HETATM    4 O4   LIG A   1      17.356   7.956  12.203  1.00  0.00    -0.273  O
HETATM    5 C5   LIG A   1      14.824   9.883  12.030  1.00  0.00    -0.020  C
HETATM    6 C6   LIG A   1      13.462   9.878  11.313  1.00  0.00    -0.061  C
HETATM    7 C7   LIG A   1      14.939  11.071  13.021  1.00  0.00    -0.052  C
HETATM    8 C8   LIG A   1      14.892  12.433  12.328  1.00  0.00    -0.065  C
HETATM    9 N9   LIG A   1      17.033   8.706  14.393  1.00  0.00    -0.341  N
HETATM   10 C10  LIG A   1      18.374   8.326  14.845  1.00  0.00     0.131  C
HETATM   11 C11  LIG A   1      18.485   6.826  14.898  1.00  0.00     0.245  C
HETATM   12 O12  LIG A   1      19.523   6.264  14.451  1.00  0.00    -0.273  O
HETATM   13 C13  LIG A   1      18.668   8.935  16.225  1.00  0.00     0.072  C
HETATM   14 O14  LIG A   1      19.998   8.696  16.600  1.00  0.00    -0.394  O
HETATM   15 N15  LIG A   1      17.425   6.042  15.466  1.00  0.00    -0.342  N
HETATM   16 C16  LIG A   1      17.366   4.586  15.319  1.00  0.00     0.108  C
HETATM   17 C17  LIG A   1      16.843   4.258  13.941  1.00  0.00     0.243  C
HETATM   18 O18  LIG A   1      15.601   4.255  13.723  1.00  0.00    -0.273  O
HETATM   19 C19  LIG A   1      16.471   3.966  16.416  1.00  0.00    -0.021  C
HETATM   20 C20  LIG A   1      16.970   4.229  17.858  1.00  0.00    -0.045  C
HETATM   21 C21  LIG A   1      15.843   3.955  18.865  1.00  0.00    -0.063  C
HETATM   22 C22  LIG A   1      18.196   3.375  18.207  1.00  0.00    -0.063  C
HETATM   23 N23  LIG A   1      17.760   4.053  12.857  1.00  0.00    -0.343  N
HETATM   24 C24  LIG A   1      17.348   4.142  11.451  1.00  0.00     0.105  C
HETATM   25 C25  LIG A   1      17.025   2.779  10.897  1.00  0.00     0.242  C
HETATM   26 O26  LIG A   1      17.505   1.753  11.451  1.00  0.00    -0.273  O
HETATM   27 C27  LIG A   1      18.461   4.788  10.625  1.00  0.00    -0.036  C
HETATM   28 N28  LIG A   1      16.224   2.666   9.705  1.00  0.00    -0.342  N
HETATM   29 C29  LIG A   1      16.061   1.445   8.896  1.00  0.00     0.110  C
HETATM   30 C30  LIG A   1      15.847   0.224   9.767  1.00  0.00     0.246  C
HETATM   31 O31  LIG A   1      16.705  -0.699   9.796  1.00  0.00    -0.272  O
HETATM   32 C32  LIG A   1      17.200   1.293   7.841  1.00  0.00    -0.015  C
HETATM   33 C33  LIG A   1      17.048   2.359   6.739  1.00  0.00    -0.060  C
HETATM   34 C34  LIG A   1      18.620   1.349   8.459  1.00  0.00    -0.051  C
HETATM   35 C35  LIG A   1      19.688   0.747   7.546  1.00  0.00    -0.065  C
HETATM   36 N36  LIG A   1      14.686   0.127  10.607  1.00  0.00    -0.329  N
HETATM   37 C37  LIG A   1      14.701  -0.504  11.919  1.00  0.00     0.111  C
HETATM   38 C38  LIG A   1      14.687  -2.006  11.802  1.00  0.00     0.243  C
HETATM   39 O39  LIG A   1      14.486  -2.552  10.682  1.00  0.00    -0.273  O
HETATM   40 C40  LIG A   1      13.425  -0.005  12.597  1.00  0.00    -0.022  C
HETATM   41 C41  LIG A   1      12.493   0.376  11.454  1.00  0.00    -0.033  C
HETATM   42 C42  LIG A   1      13.404   0.729  10.288  1.00  0.00     0.021  C
HETATM   43 N43  LIG A   1      14.850  -2.811  12.978  1.00  0.00    -0.343  N
HETATM   44 C44  LIG A   1      14.760  -4.275  12.945  1.00  0.00     0.108  C
HETATM   45 C45  LIG A   1      13.406  -4.741  12.473  1.00  0.00     0.243  C
HETATM   46 O46  LIG A   1      12.416  -3.964  12.521  1.00  0.00    -0.273  O
HETATM   47 C47  LIG A   1      15.171  -4.915  14.295  1.00  0.00    -0.021  C
HETATM   48 C48  LIG A   1      14.105  -4.906  15.419  1.00  0.00    -0.045  C
HETATM   49 C49  LIG A   1      14.617  -5.713  16.621  1.00  0.00    -0.063  C
HETATM   50 C50  LIG A   1      13.745  -3.487  15.866  1.00  0.00    -0.063  C
HETATM   51 N51  LIG A   1      13.235  -6.091  12.018  1.00  0.00    -0.343  N
HETATM   52 C52  LIG A   1      12.755  -6.470  10.680  1.00  0.00     0.105  C
HETATM   53 C53  LIG A   1      13.919  -6.915   9.832  1.00  0.00     0.243  C
HETATM   54 O54  LIG A   1      13.922  -8.084   9.359  1.00  0.00    -0.273  O
HETATM   55 C55  LIG A   1      11.955  -5.365   9.978  1.00  0.00    -0.036  C
HETATM   56 N56  LIG A   1      15.020  -6.029   9.569  1.00  0.00    -0.340  N
HETATM   57 C57  LIG A   1      16.280  -6.471   8.957  1.00  0.00     0.131  C
HETATM   58 C58  LIG A   1      17.381  -6.571   9.999  1.00  0.00     0.245  C
HETATM   59 O59  LIG A   1      18.584  -6.618   9.620  1.00  0.00    -0.273  O
HETATM   60 C60  LIG A   1      16.645  -5.497   7.826  1.00  0.00     0.072  C
HETATM   61 O61  LIG A   1      17.718  -5.997   7.076  1.00  0.00    -0.394  O
HETATM   62 N62  LIG A   1      17.069  -6.705  11.398  1.00  0.00    -0.342  N
HETATM   63 C63  LIG A   1      18.066  -6.833  12.468  1.00  0.00     0.108  C
HETATM   64 C64  LIG A   1      19.106  -5.737  12.382  1.00  0.00     0.243  C
HETATM   65 O65  LIG A   1      20.321  -6.029  12.205  1.00  0.00    -0.273  O
HETATM   66 C66  LIG A   1      18.687  -8.249  12.474  1.00  0.00    -0.024  C
HETATM   67 C67  LIG A   1      17.651  -9.368  12.717  1.00  0.00    -0.050  C
HETATM   68 C68  LIG A   1      17.605  -9.881  14.169  1.00  0.00    -0.041  C
HETATM   69 C69  LIG A   1      16.981  -8.887  15.160  1.00  0.00    -0.008  C
HETATM   70 N70  LIG A   1      17.974  -7.923  15.626  1.00  0.00    -0.330  N
HETATM   71 N71  LIG A   1      18.706  -4.361  12.510  1.00  0.00    -0.342  N
HETATM   72 C72  LIG A   1      19.659  -3.246  12.499  1.00  0.00     0.110  C
HETATM   73 C73  LIG A   1      19.616  -2.542  13.835  1.00  0.00     0.243  C
HETATM   74 O74  LIG A   1      20.661  -2.514  14.541  1.00  0.00    -0.273  O
HETATM   75 C75  LIG A   1      19.366  -2.259  11.332  1.00  0.00    -0.015  C
HETATM   76 C76  LIG A   1      20.474  -1.196  11.221  1.00  0.00    -0.060  C
HETATM   77 C77  LIG A   1      19.134  -2.964   9.972  1.00  0.00    -0.051  C
HETATM   78 C78  LIG A   1      20.357  -3.697   9.414  1.00  0.00    -0.065  C
HETATM   79 N79  LIG A   1      18.417  -1.895  14.300  1.00  0.00    -0.340  N
HETATM   80 C80  LIG A   1      18.457  -0.838  15.313  1.00  0.00     0.131  C
HETATM   81 C81  LIG A   1      17.254  -0.925  16.228  1.00  0.00     0.245  C
HETATM   82 O82  LIG A   1      17.373  -1.546  17.320  1.00  0.00    -0.273  O
HETATM   83 C83  LIG A   1      18.589   0.532  14.630  1.00  0.00     0.072  C
HETATM   84 O84  LIG A   1      18.671   1.551  15.586  1.00  0.00    -0.394  O
HETATM   85 N85  LIG A   1      15.990  -0.335  15.884  1.00  0.00    -0.345  N
HETATM   86 C86  LIG A   1      14.994  -0.042  16.918  1.00  0.00     0.097  C
HETATM   87 C87  LIG A   1      13.697   0.415  16.314  1.00  0.00     0.240  C
HETATM   88 O88  LIG A   1      12.897  -0.444  15.859  1.00  0.00    -0.273  O
HETATM   89 N89  LIG A   1      13.370   1.811  16.261  1.00  0.00    -0.342  N
HETATM   90 C90  LIG A   1      12.052   2.300  15.834  1.00  0.00     0.112  C
HETATM   91 C91  LIG A   1      12.199   3.558  15.016  1.00  0.00     0.243  C
HETATM   92 O92  LIG A   1      12.984   4.467  15.401  1.00  0.00    -0.273  O
HETATM   93 C93  LIG A   1      11.170   2.597  17.057  1.00  0.00     0.002  C
HETATM   94 C94  LIG A   1      10.851   1.347  17.836  1.00  0.00    -0.045  C
HETATM   95 C95  LIG A   1      11.615   0.994  18.961  1.00  0.00    -0.059  C
HETATM   96 C96  LIG A   1       9.797   0.513  17.428  1.00  0.00    -0.059  C
HETATM   97 C97  LIG A   1      11.308  -0.162  19.684  1.00  0.00    -0.062  C
HETATM   98 C98  LIG A   1       9.483  -0.632  18.164  1.00  0.00    -0.062  C
HETATM   99 C99  LIG A   1      10.237  -0.970  19.291  1.00  0.00    -0.062  C
HETATM  100 N100 LIG A   1      11.360   3.768  13.869  1.00  0.00    -0.340  N
HETATM  101 C101 LIG A   1      11.260   5.072  13.195  1.00  0.00     0.134  C
HETATM  102 C102 LIG A   1       9.978   5.174  12.397  1.00  0.00     0.245  C
HETATM  103 O103 LIG A   1       9.296   6.232  12.484  1.00  0.00    -0.273  O
HETATM  104 C104 LIG A   1      12.523   5.389  12.352  1.00  0.00     0.080  C
HETATM  105 O105 LIG A   1      12.363   6.589  11.636  1.00  0.00    -0.391  O
HETATM  106 C106 LIG A   1      12.962   4.252  11.421  1.00  0.00    -0.036  C
HETATM  107 N107 LIG A   1       9.538   4.113  11.533  1.00  0.00    -0.342  N
HETATM  108 C108 LIG A   1       8.225   4.151  10.882  1.00  0.00     0.108  C
HETATM  109 C109 LIG A   1       7.147   3.995  11.924  1.00  0.00     0.243  C
HETATM  110 O110 LIG A   1       6.234   4.861  12.004  1.00  0.00    -0.273  O
HETATM  111 C111 LIG A   1       8.118   3.033   9.819  1.00  0.00    -0.021  C
HETATM  112 C112 LIG A   1       6.841   3.136   8.945  1.00  0.00    -0.045  C
HETATM  113 C113 LIG A   1       7.000   4.200   7.848  1.00  0.00    -0.063  C
HETATM  114 C114 LIG A   1       6.514   1.779   8.312  1.00  0.00    -0.063  C
HETATM  115 N115 LIG A   1       7.145   2.859  12.802  1.00  0.00    -0.343  N
HETATM  116 C116 LIG A   1       5.972   2.500  13.607  1.00  0.00     0.105  C
HETATM  117 C117 LIG A   1       6.327   1.537  14.714  1.00  0.00     0.242  C
HETATM  118 O118 LIG A   1       7.296   0.743  14.581  1.00  0.00    -0.273  O
HETATM  119 C119 LIG A   1       4.891   1.893  12.711  1.00  0.00    -0.036  C
HETATM  120 N120 LIG A   1       5.508   1.476  15.891  1.00  0.00    -0.343  N
HETATM  121 C121 LIG A   1       5.770   0.531  16.985  1.00  0.00     0.108  C
HETATM  122 C122 LIG A   1       5.390  -0.877  16.591  1.00  0.00     0.243  C
HETATM  123 O123 LIG A   1       5.848  -1.837  17.267  1.00  0.00    -0.273  O
HETATM  124 C124 LIG A   1       5.008   0.940  18.263  1.00  0.00    -0.021  C
HETATM  125 C125 LIG A   1       5.439   2.317  18.830  1.00  0.00    -0.045  C
HETATM  126 C126 LIG A   1       6.889   2.303  19.343  1.00  0.00    -0.063  C
HETATM  127 C127 LIG A   1       4.491   2.731  19.961  1.00  0.00    -0.063  C
HETATM  128 N128 LIG A   1       4.497  -1.134  15.494  1.00  0.00    -0.342  N
HETATM  129 C129 LIG A   1       4.332  -2.469  14.902  1.00  0.00     0.110  C
HETATM  130 C130 LIG A   1       4.414  -2.379  13.394  1.00  0.00     0.243  C
HETATM  131 O131 LIG A   1       3.919  -1.383  12.802  1.00  0.00    -0.273  O
HETATM  132 C132 LIG A   1       3.020  -3.129  15.406  1.00  0.00    -0.018  C
HETATM  133 C133 LIG A   1       1.755  -2.361  14.989  1.00  0.00    -0.060  C
HETATM  134 C134 LIG A   1       2.917  -4.596  14.965  1.00  0.00    -0.060  C
HETATM  135 N135 LIG A   1       5.036  -3.439  12.641  1.00  0.00    -0.343  N
HETATM  136 C136 LIG A   1       5.501  -3.331  11.250  1.00  0.00     0.108  C
HETATM  137 C137 LIG A   1       6.669  -2.382  11.164  1.00  0.00     0.243  C
HETATM  138 O138 LIG A   1       6.561  -1.220  11.637  1.00  0.00    -0.273  O
HETATM  139 C139 LIG A   1       4.353  -2.954  10.286  1.00  0.00    -0.024  C
HETATM  140 C140 LIG A   1       4.709  -3.156   8.798  1.00  0.00    -0.050  C
HETATM  141 C141 LIG A   1       5.266  -1.879   8.148  1.00  0.00    -0.041  C
HETATM  142 C142 LIG A   1       5.607  -2.114   6.674  1.00  0.00    -0.008  C
HETATM  143 N143 LIG A   1       6.163  -0.899   6.088  1.00  0.00    -0.330  N
HETATM  144 N144 LIG A   1       7.900  -2.801  10.545  1.00  0.00    -0.342  N
HETATM  145 C145 LIG A   1       9.157  -2.049  10.661  1.00  0.00     0.116  C
HETATM  146 C146 LIG A   1       9.466  -1.814  12.120  1.00  0.00     0.243  C
HETATM  147 O147 LIG A   1       9.488  -0.645  12.598  1.00  0.00    -0.273  O
HETATM  148 C148 LIG A   1       9.101  -0.754   9.817  1.00  0.00     0.056  C
HETATM  149 C149 LIG A   1       9.292  -1.017   8.348  1.00  0.00     0.220  C
HETATM  150 O150 LIG A   1       8.789  -2.040   7.812  1.00  0.00    -0.275  O
HETATM  151 N151 LIG A   1       9.993  -0.072   7.539  1.00  0.00    -0.370  N
HETATM  152 N152 LIG A   1       9.657  -2.947  12.979  1.00  0.00    -0.343  N
HETATM  153 C153 LIG A   1       9.515  -2.846  14.436  1.00  0.00     0.105  C
HETATM  154 C154 LIG A   1      10.109  -4.043  15.143  1.00  0.00     0.243  C
HETATM  155 O155 LIG A   1      10.297  -5.128  14.525  1.00  0.00    -0.273  O
HETATM  156 C156 LIG A   1       8.035  -2.733  14.794  1.00  0.00    -0.036  C
HETATM  157 N157 LIG A   1      10.368  -3.970  16.551  1.00  0.00    -0.340  N
HETATM  158 C158 LIG A   1      10.583  -5.168  17.370  1.00  0.00     0.131  C
HETATM  159 C159 LIG A   1       9.331  -6.006  17.407  1.00  0.00     0.245  C
HETATM  160 O160 LIG A   1       9.427  -7.262  17.327  1.00  0.00    -0.273  O
HETATM  161 C161 LIG A   1      10.996  -4.776  18.794  1.00  0.00     0.072  C
HETATM  162 O162 LIG A   1      11.362  -5.919  19.518  1.00  0.00    -0.394  O
HETATM  163 N163 LIG A   1       8.042  -5.389  17.578  1.00  0.00    -0.339  N
HETATM  164 C164 LIG A   1       6.804  -6.172  17.652  1.00  0.00     0.153  C
HETATM  165 C165 LIG A   1       6.538  -6.806  16.314  1.00  0.00     0.328  C
HETATM  166 O166 LIG A   1       6.330  -8.047  16.235  1.00  0.00    -0.250  O
HETATM  167 C167 LIG A   1       5.619  -5.276  18.081  1.00  0.00     0.082  C
HETATM  168 O168 LIG A   1       5.946  -4.622  19.281  1.00  0.00    -0.391  O
HETATM  169 C169 LIG A   1       4.335  -6.090  18.291  1.00  0.00    -0.036  C
HETATM  170 O170 LIG A   1       6.510  -6.024  15.164  1.00  0.00    -0.480  O
ENDROOT
TORSDOF 0
                                                                                                                                                                             
ENDMDL
MODEL 2
REMARK VINA RESULT:    -6.799      2.932     10.831
REMARK INTER + INTRA:          -6.799
REMARK INTER:                  -6.799
REMARK INTRA:                   0.000
REMARK UNBOUND:                 0.000
ROOT
HETATM    1 N1   LIG A   1      19.668  -3.360  12.737  1.00  0.00    -0.320  N
HETATM    2 C2   LIG A   1      20.349  -2.131  13.159  1.00  0.00     0.087  C
HETATM    3 C3   LIG A   1      20.800  -1.332  11.960  1.00  0.00     0.237  C
HETATM    4 O4   LIG A   1      20.897  -0.079  12.063  1.00  0.00    -0.273  O
HETATM    5 C5   LIG A   1      21.545  -2.434  14.109  1.00  0.00    -0.020  C
HETATM    6 C6   LIG A   1      21.044  -2.880  15.495  1.00  0.00    -0.061  C
HETATM    7 C7   LIG A   1      22.527  -3.468  13.501  1.00  0.00    -0.052  C
HETATM    8 C8   LIG A   1      23.812  -3.623  14.315  1.00  0.00    -0.065  C
HETATM    9 N9   LIG A   1      21.144  -1.977  10.721  1.00  0.00    -0.341  N
HETATM   10 C10  LIG A   1      21.326  -1.220   9.480  1.00  0.00     0.131  C
HETATM   11 C11  LIG A   1      20.028  -0.563   9.091  1.00  0.00     0.245  C
HETATM   12 O12  LIG A   1      20.033   0.633   8.692  1.00  0.00    -0.273  O
HETATM   13 C13  LIG A   1      21.818  -2.143   8.355  1.00  0.00     0.072  C
HETATM   14 O14  LIG A   1      22.131  -1.402   7.205  1.00  0.00    -0.394  O
HETATM   15 N15  LIG A   1      18.797  -1.299   9.161  1.00  0.00    -0.342  N
HETATM   16 C16  LIG A   1      17.491  -0.647   9.038  1.00  0.00     0.108  C
HETATM   17 C17  LIG A   1      17.151   0.008  10.354  1.00  0.00     0.243  C
HETATM   18 O18  LIG A   1      16.639  -0.674  11.284  1.00  0.00    -0.273  O
HETATM   19 C19  LIG A   1      16.409  -1.674   8.631  1.00  0.00    -0.021  C
HETATM   20 C20  LIG A   1      16.674  -2.359   7.268  1.00  0.00    -0.045  C
HETATM   21 C21  LIG A   1      15.812  -3.623   7.136  1.00  0.00    -0.063  C
HETATM   22 C22  LIG A   1      16.397  -1.418   6.088  1.00  0.00    -0.063  C
HETATM   23 N23  LIG A   1      17.504   1.380  10.585  1.00  0.00    -0.343  N
HETATM   24 C24  LIG A   1      17.586   1.955  11.932  1.00  0.00     0.105  C
HETATM   25 C25  LIG A   1      16.302   2.649  12.301  1.00  0.00     0.242  C
HETATM   26 O26  LIG A   1      15.522   3.040  11.391  1.00  0.00    -0.273  O
HETATM   27 C27  LIG A   1      18.751   2.944  12.003  1.00  0.00    -0.036  C
HETATM   28 N28  LIG A   1      16.008   2.917  13.686  1.00  0.00    -0.342  N
HETATM   29 C29  LIG A   1      14.953   3.819  14.179  1.00  0.00     0.110  C
HETATM   30 C30  LIG A   1      13.658   3.631  13.415  1.00  0.00     0.246  C
HETATM   31 O31  LIG A   1      13.201   4.559  12.694  1.00  0.00    -0.272  O
HETATM   32 C32  LIG A   1      15.445   5.297  14.261  1.00  0.00    -0.015  C
HETATM   33 C33  LIG A   1      16.473   5.451  15.397  1.00  0.00    -0.060  C
HETATM   34 C34  LIG A   1      16.030   5.823  12.924  1.00  0.00    -0.051  C
HETATM   35 C35  LIG A   1      16.071   7.349  12.856  1.00  0.00    -0.065  C
HETATM   36 N36  LIG A   1      12.962   2.377  13.466  1.00  0.00    -0.329  N
HETATM   37 C37  LIG A   1      12.235   1.820  12.333  1.00  0.00     0.111  C
HETATM   38 C38  LIG A   1      10.903   2.502  12.152  1.00  0.00     0.243  C
HETATM   39 O39  LIG A   1      10.474   3.297  13.032  1.00  0.00    -0.273  O
HETATM   40 C40  LIG A   1      12.042   0.347  12.690  1.00  0.00    -0.022  C
HETATM   41 C41  LIG A   1      12.127   0.294  14.209  1.00  0.00    -0.033  C
HETATM   42 C42  LIG A   1      12.986   1.484  14.610  1.00  0.00     0.021  C
HETATM   43 N43  LIG A   1      10.104   2.200  10.999  1.00  0.00    -0.343  N
HETATM   44 C44  LIG A   1       8.762   2.763  10.807  1.00  0.00     0.108  C
HETATM   45 C45  LIG A   1       7.822   2.357  11.913  1.00  0.00     0.243  C
HETATM   46 O46  LIG A   1       8.081   1.354  12.630  1.00  0.00    -0.273  O
HETATM   47 C47  LIG A   1       8.194   2.448   9.400  1.00  0.00    -0.021  C
HETATM   48 C48  LIG A   1       7.597   1.033   9.194  1.00  0.00    -0.045  C
HETATM   49 C49  LIG A   1       6.942   0.947   7.807  1.00  0.00    -0.063  C
HETATM   50 C50  LIG A   1       8.650  -0.067   9.337  1.00  0.00    -0.063  C
HETATM   51 N51  LIG A   1       6.602   3.085  12.115  1.00  0.00    -0.343  N
HETATM   52 C52  LIG A   1       6.229   3.764  13.365  1.00  0.00     0.105  C
HETATM   53 C53  LIG A   1       6.444   5.249  13.218  1.00  0.00     0.243  C
HETATM   54 O54  LIG A   1       5.463   6.028  13.361  1.00  0.00    -0.273  O
HETATM   55 C55  LIG A   1       6.961   3.224  14.601  1.00  0.00    -0.036  C
HETATM   56 N56  LIG A   1       7.745   5.777  12.909  1.00  0.00    -0.340  N
HETATM   57 C57  LIG A   1       7.974   7.176  12.521  1.00  0.00     0.131  C
HETATM   58 C58  LIG A   1       8.226   7.289  11.028  1.00  0.00     0.245  C
HETATM   59 O59  LIG A   1       8.753   8.340  10.570  1.00  0.00    -0.273  O
HETATM   60 C60  LIG A   1       9.147   7.727  13.346  1.00  0.00     0.072  C
HETATM   61 O61  LIG A   1       9.262   9.113  13.169  1.00  0.00    -0.394  O
HETATM   62 N62  LIG A   1       7.791   6.258  10.122  1.00  0.00    -0.342  N
HETATM   63 C63  LIG A   1       7.969   6.296   8.664  1.00  0.00     0.108  C
HETATM   64 C64  LIG A   1       9.408   6.587   8.296  1.00  0.00     0.243  C
HETATM   65 O65  LIG A   1       9.696   7.620   7.632  1.00  0.00    -0.273  O
HETATM   66 C66  LIG A   1       6.974   7.284   8.015  1.00  0.00    -0.024  C
HETATM   67 C67  LIG A   1       5.495   6.907   8.256  1.00  0.00    -0.050  C
HETATM   68 C68  LIG A   1       4.831   6.174   7.075  1.00  0.00    -0.041  C
HETATM   69 C69  LIG A   1       5.320   4.731   6.884  1.00  0.00    -0.008  C
HETATM   70 N70  LIG A   1       6.549   4.697   6.096  1.00  0.00    -0.330  N
HETATM   71 N71  LIG A   1      10.447   5.678   8.700  1.00  0.00    -0.342  N
HETATM   72 C72  LIG A   1      11.856   5.856   8.332  1.00  0.00     0.110  C
HETATM   73 C73  LIG A   1      12.292   4.698   7.465  1.00  0.00     0.243  C
HETATM   74 O74  LIG A   1      12.678   4.933   6.287  1.00  0.00    -0.273  O
HETATM   75 C75  LIG A   1      12.761   5.990   9.590  1.00  0.00    -0.015  C
HETATM   76 C76  LIG A   1      14.202   6.355   9.194  1.00  0.00    -0.060  C
HETATM   77 C77  LIG A   1      12.206   6.983  10.645  1.00  0.00    -0.051  C
HETATM   78 C78  LIG A   1      12.153   8.442  10.185  1.00  0.00    -0.065  C
HETATM   79 N79  LIG A   1      12.292   3.349   7.966  1.00  0.00    -0.340  N
HETATM   80 C80  LIG A   1      13.123   2.304   7.361  1.00  0.00     0.131  C
HETATM   81 C81  LIG A   1      12.407   0.970   7.382  1.00  0.00     0.245  C
HETATM   82 O82  LIG A   1      11.763   0.617   6.356  1.00  0.00    -0.273  O
HETATM   83 C83  LIG A   1      14.491   2.258   8.059  1.00  0.00     0.072  C
HETATM   84 O84  LIG A   1      15.312   1.293   7.466  1.00  0.00    -0.394  O
HETATM   85 N85  LIG A   1      12.431   0.109   8.532  1.00  0.00    -0.345  N
HETATM   86 C86  LIG A   1      12.129  -1.318   8.405  1.00  0.00     0.097  C
HETATM   87 C87  LIG A   1      12.054  -1.983   9.750  1.00  0.00     0.240  C
HETATM   88 O88  LIG A   1      11.000  -1.873  10.431  1.00  0.00    -0.273  O
HETATM   89 N89  LIG A   1      13.166  -2.739  10.252  1.00  0.00    -0.342  N
HETATM   90 C90  LIG A   1      13.088  -3.542  11.480  1.00  0.00     0.112  C
HETATM   91 C91  LIG A   1      14.380  -3.447  12.252  1.00  0.00     0.243  C
HETATM   92 O92  LIG A   1      15.481  -3.544  11.644  1.00  0.00    -0.273  O
HETATM   93 C93  LIG A   1      12.814  -5.015  11.140  1.00  0.00     0.002  C
HETATM   94 C94  LIG A   1      11.460  -5.202  10.506  1.00  0.00    -0.045  C
HETATM   95 C95  LIG A   1      11.330  -5.261   9.107  1.00  0.00    -0.059  C
HETATM   96 C96  LIG A   1      10.313  -5.299  11.310  1.00  0.00    -0.059  C
HETATM   97 C97  LIG A   1      10.072  -5.443   8.526  1.00  0.00    -0.062  C
HETATM   98 C98  LIG A   1       9.060  -5.499  10.725  1.00  0.00    -0.062  C
HETATM   99 C99  LIG A   1       8.939  -5.572   9.335  1.00  0.00    -0.062  C
HETATM  100 N100 LIG A   1      14.353  -3.366  13.686  1.00  0.00    -0.340  N
HETATM  101 C101 LIG A   1      15.560  -3.544  14.508  1.00  0.00     0.134  C
HETATM  102 C102 LIG A   1      15.200  -3.931  15.925  1.00  0.00     0.245  C
HETATM  103 O103 LIG A   1      15.839  -4.870  16.476  1.00  0.00    -0.273  O
HETATM  104 C104 LIG A   1      16.498  -2.310  14.438  1.00  0.00     0.080  C
HETATM  105 O105 LIG A   1      17.592  -2.458  15.309  1.00  0.00    -0.391  O
HETATM  106 C106 LIG A   1      15.793  -0.968  14.670  1.00  0.00    -0.036  C
HETATM  107 N107 LIG A   1      14.175  -3.242  16.660  1.00  0.00    -0.342  N
HETATM  108 C108 LIG A   1      13.725  -3.715  17.973  1.00  0.00     0.108  C
HETATM  109 C109 LIG A   1      12.986  -5.018  17.807  1.00  0.00     0.243  C
HETATM  110 O110 LIG A   1      13.354  -6.027  18.468  1.00  0.00    -0.273  O
HETATM  111 C111 LIG A   1      12.818  -2.659  18.646  1.00  0.00    -0.021  C
HETATM  112 C112 LIG A   1      12.471  -2.995  20.120  1.00  0.00    -0.045  C
HETATM  113 C113 LIG A   1      13.630  -2.637  21.062  1.00  0.00    -0.063  C
HETATM  114 C114 LIG A   1      11.200  -2.255  20.552  1.00  0.00    -0.063  C
HETATM  115 N115 LIG A   1      11.857  -5.105  16.923  1.00  0.00    -0.343  N
HETATM  116 C116 LIG A   1      10.926  -6.239  16.959  1.00  0.00     0.105  C
HETATM  117 C117 LIG A   1      10.077  -6.305  15.713  1.00  0.00     0.242  C
HETATM  118 O118 LIG A   1       9.805  -5.255  15.071  1.00  0.00    -0.273  O
HETATM  119 C119 LIG A   1      10.033  -6.140  18.197  1.00  0.00    -0.036  C
HETATM  120 N120 LIG A   1       9.517  -7.561  15.303  1.00  0.00    -0.343  N
HETATM  121 C121 LIG A   1       8.645  -7.687  14.127  1.00  0.00     0.108  C
HETATM  122 C122 LIG A   1       7.276  -7.113  14.399  1.00  0.00     0.243  C
HETATM  123 O123 LIG A   1       6.530  -6.841  13.421  1.00  0.00    -0.273  O
HETATM  124 C124 LIG A   1       8.517  -9.162  13.690  1.00  0.00    -0.021  C
HETATM  125 C125 LIG A   1       9.859  -9.800  13.248  1.00  0.00    -0.045  C
HETATM  126 C126 LIG A   1      10.407  -9.159  11.961  1.00  0.00    -0.063  C
HETATM  127 C127 LIG A   1       9.673 -11.307  13.040  1.00  0.00    -0.063  C
HETATM  128 N128 LIG A   1       6.802  -6.907  15.741  1.00  0.00    -0.342  N
HETATM  129 C129 LIG A   1       5.616  -6.095  16.047  1.00  0.00     0.110  C
HETATM  130 C130 LIG A   1       5.926  -5.129  17.170  1.00  0.00     0.243  C
HETATM  131 O131 LIG A   1       6.677  -5.494  18.114  1.00  0.00    -0.273  O
HETATM  132 C132 LIG A   1       4.395  -7.007  16.343  1.00  0.00    -0.018  C
HETATM  133 C133 LIG A   1       4.587  -7.896  17.583  1.00  0.00    -0.060  C
HETATM  134 C134 LIG A   1       3.098  -6.196  16.471  1.00  0.00    -0.060  C
HETATM  135 N135 LIG A   1       5.345  -3.811  17.167  1.00  0.00    -0.343  N
HETATM  136 C136 LIG A   1       5.823  -2.673  17.969  1.00  0.00     0.108  C
HETATM  137 C137 LIG A   1       7.185  -2.238  17.494  1.00  0.00     0.243  C
HETATM  138 O138 LIG A   1       8.115  -3.083  17.415  1.00  0.00    -0.273  O
HETATM  139 C139 LIG A   1       5.787  -2.980  19.484  1.00  0.00    -0.024  C
HETATM  140 C140 LIG A   1       5.953  -1.726  20.368  1.00  0.00    -0.050  C
HETATM  141 C141 LIG A   1       7.417  -1.474  20.763  1.00  0.00    -0.041  C
HETATM  142 C142 LIG A   1       7.545  -0.226  21.640  1.00  0.00    -0.008  C
HETATM  143 N143 LIG A   1       8.946   0.011  21.974  1.00  0.00    -0.330  N
HETATM  144 N144 LIG A   1       7.424  -0.863  17.135  1.00  0.00    -0.342  N
HETATM  145 C145 LIG A   1       8.623  -0.415  16.414  1.00  0.00     0.116  C
HETATM  146 C146 LIG A   1       8.778  -1.225  15.150  1.00  0.00     0.243  C
HETATM  147 O147 LIG A   1       9.769  -1.990  14.988  1.00  0.00    -0.273  O
HETATM  148 C148 LIG A   1       9.863  -0.453  17.337  1.00  0.00     0.056  C
HETATM  149 C149 LIG A   1       9.901   0.704  18.297  1.00  0.00     0.220  C
HETATM  150 O150 LIG A   1       8.839   1.129  18.827  1.00  0.00    -0.275  O
HETATM  151 N151 LIG A   1      11.151   1.288  18.664  1.00  0.00    -0.370  N
HETATM  152 N152 LIG A   1       7.738  -1.174  14.162  1.00  0.00    -0.343  N
HETATM  153 C153 LIG A   1       7.579  -2.224  13.151  1.00  0.00     0.105  C
HETATM  154 C154 LIG A   1       6.676  -1.786  12.021  1.00  0.00     0.243  C
HETATM  155 O155 LIG A   1       5.869  -0.827  12.177  1.00  0.00    -0.273  O
HETATM  156 C156 LIG A   1       6.994  -3.474  13.806  1.00  0.00    -0.036  C
HETATM  157 N157 LIG A   1       6.671  -2.530  10.795  1.00  0.00    -0.340  N
HETATM  158 C158 LIG A   1       5.590  -2.411   9.812  1.00  0.00     0.131  C
HETATM  159 C159 LIG A   1       4.296  -2.918  10.396  1.00  0.00     0.245  C
HETATM  160 O160 LIG A   1       3.227  -2.288  10.165  1.00  0.00    -0.273  O
HETATM  161 C161 LIG A   1       5.934  -3.195   8.539  1.00  0.00     0.072  C
HETATM  162 O162 LIG A   1       4.978  -2.938   7.547  1.00  0.00    -0.394  O
HETATM  163 N163 LIG A   1       4.267  -4.129  11.172  1.00  0.00    -0.339  N
HETATM  164 C164 LIG A   1       3.024  -4.672  11.730  1.00  0.00     0.153  C
HETATM  165 C165 LIG A   1       2.516  -3.745  12.801  1.00  0.00     0.328  C
HETATM  166 O166 LIG A   1       1.329  -3.323  12.758  1.00  0.00    -0.250  O
HETATM  167 C167 LIG A   1       3.256  -6.092  12.296  1.00  0.00     0.082  C
HETATM  168 O168 LIG A   1       3.826  -6.899  11.296  1.00  0.00    -0.391  O
HETATM  169 C169 LIG A   1       1.948  -6.737  12.771  1.00  0.00    -0.036  C
HETATM  170 O170 LIG A   1       3.350  -3.362  13.846  1.00  0.00    -0.480  O
ENDROOT
TORSDOF 0
                                                                                                                                                                             
ENDMDL
