MODEL 1
REMARK VINA RESULT:    -8.642      0.000      0.000
REMARK INTER + INTRA:          -8.642
REMARK INTER:                  -8.642
REMARK INTRA:                   0.000
REMARK UNBOUND:                 0.000
ROOT
HETATM    1 N1   LIG A   1       4.539  -1.882  17.804  1.00  0.00    -0.320  N
HETATM    2 C2   LIG A   1       4.706  -2.916  18.832  1.00  0.00     0.087  C
HETATM    3 C3   LIG A   1       4.269  -4.263  18.309  1.00  0.00     0.237  C
HETATM    4 O4   LIG A   1       4.804  -5.304  18.780  1.00  0.00    -0.273  O
HETATM    5 C5   LIG A   1       3.945  -2.553  20.141  1.00  0.00    -0.020  C
HETATM    6 C6   LIG A   1       4.651  -1.406  20.885  1.00  0.00    -0.061  C
HETATM    7 C7   LIG A   1       2.453  -2.225  19.877  1.00  0.00    -0.052  C
HETATM    8 C8   LIG A   1       1.638  -2.074  21.163  1.00  0.00    -0.065  C
HETATM    9 N9   LIG A   1       3.243  -4.377  17.308  1.00  0.00    -0.341  N
HETATM   10 C10  LIG A   1       2.989  -5.635  16.600  1.00  0.00     0.131  C
HETATM   11 C11  LIG A   1       4.200  -6.013  15.789  1.00  0.00     0.245  C
HETATM   12 O12  LIG A   1       4.600  -7.209  15.790  1.00  0.00    -0.273  O
HETATM   13 C13  LIG A   1       1.756  -5.502  15.693  1.00  0.00     0.072  C
HETATM   14 O14  LIG A   1       1.423  -6.740  15.123  1.00  0.00    -0.394  O
HETATM   15 N15  LIG A   1       4.885  -5.021  15.008  1.00  0.00    -0.342  N
HETATM   16 C16  LIG A   1       6.197  -5.271  14.407  1.00  0.00     0.108  C
HETATM   17 C17  LIG A   1       7.254  -5.131  15.475  1.00  0.00     0.243  C
HETATM   18 O18  LIG A   1       7.695  -3.989  15.780  1.00  0.00    -0.273  O
HETATM   19 C19  LIG A   1       6.453  -4.292  13.238  1.00  0.00    -0.021  C
HETATM   20 C20  LIG A   1       5.426  -4.408  12.085  1.00  0.00    -0.045  C
HETATM   21 C21  LIG A   1       5.496  -3.161  11.190  1.00  0.00    -0.063  C
HETATM   22 C22  LIG A   1       5.652  -5.667  11.238  1.00  0.00    -0.063  C
HETATM   23 N23  LIG A   1       7.682  -6.284  16.215  1.00  0.00    -0.343  N
HETATM   24 C24  LIG A   1       8.371  -6.178  17.507  1.00  0.00     0.105  C
HETATM   25 C25  LIG A   1       9.865  -6.245  17.327  1.00  0.00     0.242  C
HETATM   26 O26  LIG A   1      10.344  -6.778  16.289  1.00  0.00    -0.273  O
HETATM   27 C27  LIG A   1       7.908  -7.302  18.435  1.00  0.00    -0.036  C
HETATM   28 N28  LIG A   1      10.731  -5.758  18.371  1.00  0.00    -0.342  N
HETATM   29 C29  LIG A   1      12.180  -6.007  18.467  1.00  0.00     0.110  C
HETATM   30 C30  LIG A   1      12.864  -5.843  17.124  1.00  0.00     0.246  C
HETATM   31 O31  LIG A   1      13.396  -6.832  16.553  1.00  0.00    -0.272  O
HETATM   32 C32  LIG A   1      12.490  -7.356  19.187  1.00  0.00    -0.015  C
HETATM   33 C33  LIG A   1      12.143  -7.249  20.684  1.00  0.00    -0.060  C
HETATM   34 C34  LIG A   1      11.770  -8.572  18.548  1.00  0.00    -0.051  C
HETATM   35 C35  LIG A   1      12.412  -9.906  18.927  1.00  0.00    -0.065  C
HETATM   36 N36  LIG A   1      12.870  -4.567  16.465  1.00  0.00    -0.329  N
HETATM   37 C37  LIG A   1      12.790  -4.415  15.020  1.00  0.00     0.111  C
HETATM   38 C38  LIG A   1      14.115  -4.710  14.366  1.00  0.00     0.243  C
HETATM   39 O39  LIG A   1      15.149  -4.863  15.072  1.00  0.00    -0.273  O
HETATM   40 C40  LIG A   1      12.400  -2.952  14.811  1.00  0.00    -0.022  C
HETATM   41 C41  LIG A   1      12.861  -2.236  16.074  1.00  0.00    -0.033  C
HETATM   42 C42  LIG A   1      12.858  -3.295  17.165  1.00  0.00     0.021  C
HETATM   43 N43  LIG A   1      14.203  -4.763  12.935  1.00  0.00    -0.343  N
HETATM   44 C44  LIG A   1      15.478  -4.959  12.235  1.00  0.00     0.108  C
HETATM   45 C45  LIG A   1      16.457  -3.852  12.535  1.00  0.00     0.243  C
HETATM   46 O46  LIG A   1      16.048  -2.747  12.980  1.00  0.00    -0.273  O
HETATM   47 C47  LIG A   1      15.280  -5.179  10.714  1.00  0.00    -0.021  C
HETATM   48 C48  LIG A   1      15.039  -3.912   9.855  1.00  0.00    -0.045  C
HETATM   49 C49  LIG A   1      15.023  -4.294   8.367  1.00  0.00    -0.063  C
HETATM   50 C50  LIG A   1      13.733  -3.204  10.220  1.00  0.00    -0.063  C
HETATM   51 N51  LIG A   1      17.853  -4.042  12.263  1.00  0.00    -0.343  N
HETATM   52 C52  LIG A   1      18.923  -3.944  13.267  1.00  0.00     0.105  C
HETATM   53 C53  LIG A   1      19.377  -5.327  13.660  1.00  0.00     0.243  C
HETATM   54 O54  LIG A   1      20.582  -5.652  13.477  1.00  0.00    -0.273  O
HETATM   55 C55  LIG A   1      18.533  -3.122  14.502  1.00  0.00    -0.036  C
HETATM   56 N56  LIG A   1      18.453  -6.271  14.226  1.00  0.00    -0.340  N
HETATM   57 C57  LIG A   1      18.768  -7.694  14.408  1.00  0.00     0.131  C
HETATM   58 C58  LIG A   1      18.071  -8.541  13.358  1.00  0.00     0.245  C
HETATM   59 O59  LIG A   1      17.960  -9.785  13.544  1.00  0.00    -0.273  O
HETATM   60 C60  LIG A   1      18.373  -8.106  15.835  1.00  0.00     0.072  C
HETATM   61 O61  LIG A   1      18.851  -9.391  16.124  1.00  0.00    -0.394  O
HETATM   62 N62  LIG A   1      17.619  -7.964  12.119  1.00  0.00    -0.342  N
HETATM   63 C63  LIG A   1      16.960  -8.711  11.040  1.00  0.00     0.108  C
HETATM   64 C64  LIG A   1      15.794  -9.519  11.566  1.00  0.00     0.243  C
HETATM   65 O65  LIG A   1      15.793 -10.776  11.455  1.00  0.00    -0.273  O
HETATM   66 C66  LIG A   1      17.983  -9.571  10.263  1.00  0.00    -0.024  C
HETATM   67 C67  LIG A   1      19.095  -8.736   9.590  1.00  0.00    -0.050  C
HETATM   68 C68  LIG A   1      18.866  -8.473   8.089  1.00  0.00    -0.041  C
HETATM   69 C69  LIG A   1      17.737  -7.474   7.798  1.00  0.00    -0.008  C
HETATM   70 N70  LIG A   1      16.438  -8.142   7.788  1.00  0.00    -0.330  N
HETATM   71 N71  LIG A   1      14.683  -8.849  12.187  1.00  0.00    -0.342  N
HETATM   72 C72  LIG A   1      13.489  -9.554  12.667  1.00  0.00     0.110  C
HETATM   73 C73  LIG A   1      12.287  -9.090  11.878  1.00  0.00     0.243  C
HETATM   74 O74  LIG A   1      11.653  -9.932  11.185  1.00  0.00    -0.273  O
HETATM   75 C75  LIG A   1      13.277  -9.341  14.193  1.00  0.00    -0.015  C
HETATM   76 C76  LIG A   1      12.132 -10.226  14.718  1.00  0.00    -0.060  C
HETATM   77 C77  LIG A   1      14.567  -9.547  15.029  1.00  0.00    -0.051  C
HETATM   78 C78  LIG A   1      15.112 -10.978  15.022  1.00  0.00    -0.065  C
HETATM   79 N79  LIG A   1      11.851  -7.719  11.919  1.00  0.00    -0.340  N
HETATM   80 C80  LIG A   1      10.478  -7.338  11.577  1.00  0.00     0.131  C
HETATM   81 C81  LIG A   1      10.452  -6.004  10.863  1.00  0.00     0.245  C
HETATM   82 O82  LIG A   1      10.437  -5.998   9.601  1.00  0.00    -0.273  O
HETATM   83 C83  LIG A   1       9.603  -7.356  12.841  1.00  0.00     0.072  C
HETATM   84 O84  LIG A   1       8.279  -7.034  12.525  1.00  0.00    -0.394  O
HETATM   85 N85  LIG A   1      10.457  -4.756  11.576  1.00  0.00    -0.345  N
HETATM   86 C86  LIG A   1      10.000  -3.524  10.931  1.00  0.00     0.097  C
HETATM   87 C87  LIG A   1      10.247  -2.326  11.804  1.00  0.00     0.240  C
HETATM   88 O88  LIG A   1      11.399  -1.820  11.839  1.00  0.00    -0.273  O
HETATM   89 N89  LIG A   1       9.183  -1.761  12.583  1.00  0.00    -0.342  N
HETATM   90 C90  LIG A   1       9.325  -0.500  13.322  1.00  0.00     0.112  C
HETATM   91 C91  LIG A   1       8.604  -0.582  14.644  1.00  0.00     0.243  C
HETATM   92 O92  LIG A   1       7.446  -1.078  14.696  1.00  0.00    -0.273  O
HETATM   93 C93  LIG A   1       8.747   0.667  12.506  1.00  0.00     0.002  C
HETATM   94 C94  LIG A   1       9.526   0.906  11.239  1.00  0.00    -0.045  C
HETATM   95 C95  LIG A   1       9.094   0.352  10.022  1.00  0.00    -0.059  C
HETATM   96 C96  LIG A   1      10.704   1.670  11.271  1.00  0.00    -0.059  C
HETATM   97 C97  LIG A   1       9.817   0.586   8.849  1.00  0.00    -0.062  C
HETATM   98 C98  LIG A   1      11.414   1.915  10.092  1.00  0.00    -0.062  C
HETATM   99 C99  LIG A   1      10.971   1.374   8.882  1.00  0.00    -0.062  C
HETATM  100 N100 LIG A   1       9.187   0.012  15.815  1.00  0.00    -0.340  N
HETATM  101 C101 LIG A   1       8.428   0.208  17.060  1.00  0.00     0.134  C
HETATM  102 C102 LIG A   1       9.059   1.281  17.919  1.00  0.00     0.245  C
HETATM  103 O103 LIG A   1       8.311   2.153  18.443  1.00  0.00    -0.273  O
HETATM  104 C104 LIG A   1       8.209  -1.125  17.823  1.00  0.00     0.080  C
HETATM  105 O105 LIG A   1       7.573  -0.902  19.058  1.00  0.00    -0.391  O
HETATM  106 C106 LIG A   1       9.481  -1.962  18.008  1.00  0.00    -0.036  C
HETATM  107 N107 LIG A   1      10.474   1.315  18.169  1.00  0.00    -0.342  N
HETATM  108 C108 LIG A   1      11.100   2.438  18.873  1.00  0.00     0.108  C
HETATM  109 C109 LIG A   1      11.040   3.668  18.004  1.00  0.00     0.243  C
HETATM  110 O110 LIG A   1      10.520   4.723  18.459  1.00  0.00    -0.273  O
HETATM  111 C111 LIG A   1      12.565   2.100  19.234  1.00  0.00    -0.021  C
HETATM  112 C112 LIG A   1      13.230   3.153  20.159  1.00  0.00    -0.045  C
HETATM  113 C113 LIG A   1      12.799   2.963  21.621  1.00  0.00    -0.063  C
HETATM  114 C114 LIG A   1      14.757   3.073  20.050  1.00  0.00    -0.063  C
HETATM  115 N115 LIG A   1      11.591   3.647  16.678  1.00  0.00    -0.343  N
HETATM  116 C116 LIG A   1      11.838   4.878  15.918  1.00  0.00     0.105  C
HETATM  117 C117 LIG A   1      12.040   4.597  14.449  1.00  0.00     0.242  C
HETATM  118 O118 LIG A   1      12.509   3.490  14.070  1.00  0.00    -0.273  O
HETATM  119 C119 LIG A   1      13.059   5.604  16.485  1.00  0.00    -0.036  C
HETATM  120 N120 LIG A   1      11.768   5.626  13.486  1.00  0.00    -0.343  N
HETATM  121 C121 LIG A   1      11.986   5.434  12.046  1.00  0.00     0.108  C
HETATM  122 C122 LIG A   1      13.459   5.448  11.711  1.00  0.00     0.243  C
HETATM  123 O123 LIG A   1      13.831   4.975  10.604  1.00  0.00    -0.273  O
HETATM  124 C124 LIG A   1      11.254   6.518  11.227  1.00  0.00    -0.021  C
HETATM  125 C125 LIG A   1       9.713   6.488  11.392  1.00  0.00    -0.045  C
HETATM  126 C126 LIG A   1       9.093   5.208  10.805  1.00  0.00    -0.063  C
HETATM  127 C127 LIG A   1       9.096   7.720  10.720  1.00  0.00    -0.063  C
HETATM  128 N128 LIG A   1      14.427   6.016  12.610  1.00  0.00    -0.342  N
HETATM  129 C129 LIG A   1      15.872   5.794  12.463  1.00  0.00     0.110  C
HETATM  130 C130 LIG A   1      16.474   5.405  13.795  1.00  0.00     0.243  C
HETATM  131 O131 LIG A   1      16.043   5.938  14.851  1.00  0.00    -0.273  O
HETATM  132 C132 LIG A   1      16.550   7.036  11.823  1.00  0.00    -0.018  C
HETATM  133 C133 LIG A   1      16.439   8.302  12.689  1.00  0.00    -0.060  C
HETATM  134 C134 LIG A   1      18.020   6.763  11.473  1.00  0.00    -0.060  C
HETATM  135 N135 LIG A   1      17.549   4.446  13.848  1.00  0.00    -0.343  N
HETATM  136 C136 LIG A   1      17.977   3.719  15.052  1.00  0.00     0.108  C
HETATM  137 C137 LIG A   1      16.901   2.761  15.492  1.00  0.00     0.243  C
HETATM  138 O138 LIG A   1      15.730   3.186  15.681  1.00  0.00    -0.273  O
HETATM  139 C139 LIG A   1      18.418   4.680  16.180  1.00  0.00    -0.024  C
HETATM  140 C140 LIG A   1      19.182   3.978  17.322  1.00  0.00    -0.050  C
HETATM  141 C141 LIG A   1      18.257   3.544  18.470  1.00  0.00    -0.041  C
HETATM  142 C142 LIG A   1      19.046   2.853  19.585  1.00  0.00    -0.008  C
HETATM  143 N143 LIG A   1      18.142   2.421  20.646  1.00  0.00    -0.330  N
HETATM  144 N144 LIG A   1      17.207   1.368  15.695  1.00  0.00    -0.342  N
HETATM  145 C145 LIG A   1      16.179   0.331  15.853  1.00  0.00     0.116  C
HETATM  146 C146 LIG A   1      15.219   0.396  14.689  1.00  0.00     0.243  C
HETATM  147 O147 LIG A   1      14.006   0.698  14.865  1.00  0.00    -0.273  O
HETATM  148 C148 LIG A   1      15.494   0.445  17.235  1.00  0.00     0.056  C
HETATM  149 C149 LIG A   1      16.345  -0.106  18.346  1.00  0.00     0.220  C
HETATM  150 O150 LIG A   1      17.593   0.066  18.340  1.00  0.00    -0.275  O
HETATM  151 N151 LIG A   1      15.734  -0.775  19.449  1.00  0.00    -0.370  N
HETATM  152 N152 LIG A   1      15.725   0.186  13.363  1.00  0.00    -0.343  N
HETATM  153 C153 LIG A   1      15.002   0.657  12.176  1.00  0.00     0.105  C
HETATM  154 C154 LIG A   1      15.522   0.017  10.910  1.00  0.00     0.243  C
HETATM  155 O155 LIG A   1      16.673  -0.501  10.876  1.00  0.00    -0.273  O
HETATM  156 C156 LIG A   1      15.141   2.174  12.067  1.00  0.00    -0.036  C
HETATM  157 N157 LIG A   1      14.737   0.089   9.712  1.00  0.00    -0.340  N
HETATM  158 C158 LIG A   1      15.308  -0.165   8.385  1.00  0.00     0.131  C
HETATM  159 C159 LIG A   1      16.337   0.885   8.051  1.00  0.00     0.245  C
HETATM  160 O160 LIG A   1      17.407   0.539   7.479  1.00  0.00    -0.273  O
HETATM  161 C161 LIG A   1      14.205  -0.178   7.320  1.00  0.00     0.072  C
HETATM  162 O162 LIG A   1      14.735  -0.586   6.088  1.00  0.00    -0.394  O
HETATM  163 N163 LIG A   1      16.087   2.272   8.338  1.00  0.00    -0.339  N
HETATM  164 C164 LIG A   1      17.049   3.327   8.000  1.00  0.00     0.153  C
HETATM  165 C165 LIG A   1      18.277   3.172   8.855  1.00  0.00     0.328  C
HETATM  166 O166 LIG A   1      19.416   3.120   8.319  1.00  0.00    -0.250  O
HETATM  167 C167 LIG A   1      16.415   4.724   8.196  1.00  0.00     0.082  C
HETATM  168 O168 LIG A   1      15.218   4.794   7.463  1.00  0.00    -0.391  O
HETATM  169 C169 LIG A   1      17.352   5.846   7.729  1.00  0.00    -0.036  C
HETATM  170 O170 LIG A   1      18.158   3.096  10.239  1.00  0.00    -0.480  O
ENDROOT
TORSDOF 0
                                                                                                                                                                             
ENDMDL
MODEL 2
REMARK VINA RESULT:    -7.879      2.639     12.086
REMARK INTER + INTRA:          -7.879
REMARK INTER:                  -7.879
REMARK INTRA:                   0.000
REMARK UNBOUND:                 0.000
ROOT
HETATM    1 N1   LIG A   1      14.249   8.343  13.922  1.00  0.00    -0.320  N
HETATM    2 C2   LIG A   1      15.091   8.536  12.736  1.00  0.00     0.087  C
HETATM    3 C3   LIG A   1      16.553   8.395  13.090  1.00  0.00     0.237  C
HETATM    4 O4   LIG A   1      17.359   7.995  12.207  1.00  0.00    -0.273  O
HETATM    5 C5   LIG A   1      14.814   9.906  12.050  1.00  0.00    -0.020  C
HETATM    6 C6   LIG A   1      13.450   9.894  11.336  1.00  0.00    -0.061  C
HETATM    7 C7   LIG A   1      14.924  11.090  13.045  1.00  0.00    -0.052  C
HETATM    8 C8   LIG A   1      14.866  12.455  12.358  1.00  0.00    -0.065  C
HETATM    9 N9   LIG A   1      17.037   8.733  14.401  1.00  0.00    -0.341  N
HETATM   10 C10  LIG A   1      18.382   8.361  14.848  1.00  0.00     0.131  C
HETATM   11 C11  LIG A   1      18.504   6.861  14.894  1.00  0.00     0.245  C
HETATM   12 O12  LIG A   1      19.544   6.308  14.443  1.00  0.00    -0.273  O
HETATM   13 C13  LIG A   1      18.676   8.966  16.230  1.00  0.00     0.072  C
HETATM   14 O14  LIG A   1      20.009   8.734  16.600  1.00  0.00    -0.394  O
HETATM   15 N15  LIG A   1      17.450   6.067  15.462  1.00  0.00    -0.342  N
HETATM   16 C16  LIG A   1      17.400   4.612  15.309  1.00  0.00     0.108  C
HETATM   17 C17  LIG A   1      16.876   4.286  13.932  1.00  0.00     0.243  C
HETATM   18 O18  LIG A   1      15.633   4.276  13.717  1.00  0.00    -0.273  O
HETATM   19 C19  LIG A   1      16.512   3.981  16.407  1.00  0.00    -0.021  C
HETATM   20 C20  LIG A   1      17.014   4.242  17.848  1.00  0.00    -0.045  C
HETATM   21 C21  LIG A   1      15.892   3.956  18.857  1.00  0.00    -0.063  C
HETATM   22 C22  LIG A   1      18.247   3.395  18.190  1.00  0.00    -0.063  C
HETATM   23 N23  LIG A   1      17.791   4.092  12.844  1.00  0.00    -0.343  N
HETATM   24 C24  LIG A   1      17.374   4.184  11.440  1.00  0.00     0.105  C
HETATM   25 C25  LIG A   1      17.059   2.821  10.881  1.00  0.00     0.242  C
HETATM   26 O26  LIG A   1      17.547   1.796  11.429  1.00  0.00    -0.273  O
HETATM   27 C27  LIG A   1      18.481   4.841  10.613  1.00  0.00    -0.036  C
HETATM   28 N28  LIG A   1      16.255   2.707   9.691  1.00  0.00    -0.342  N
HETATM   29 C29  LIG A   1      16.097   1.489   8.877  1.00  0.00     0.110  C
HETATM   30 C30  LIG A   1      15.894   0.263   9.744  1.00  0.00     0.246  C
HETATM   31 O31  LIG A   1      16.758  -0.655   9.766  1.00  0.00    -0.272  O
HETATM   32 C32  LIG A   1      17.234   1.348   7.818  1.00  0.00    -0.015  C
HETATM   33 C33  LIG A   1      17.072   2.418   6.722  1.00  0.00    -0.060  C
HETATM   34 C34  LIG A   1      18.656   1.412   8.433  1.00  0.00    -0.051  C
HETATM   35 C35  LIG A   1      19.725   0.821   7.514  1.00  0.00    -0.065  C
HETATM   36 N36  LIG A   1      14.737   0.155  10.587  1.00  0.00    -0.329  N
HETATM   37 C37  LIG A   1      14.759  -0.482  11.896  1.00  0.00     0.111  C
HETATM   38 C38  LIG A   1      14.754  -1.983  11.773  1.00  0.00     0.243  C
HETATM   39 O39  LIG A   1      14.553  -2.526  10.651  1.00  0.00    -0.273  O
HETATM   40 C40  LIG A   1      13.482   0.006  12.579  1.00  0.00    -0.022  C
HETATM   41 C41  LIG A   1      12.544   0.386  11.441  1.00  0.00    -0.033  C
HETATM   42 C42  LIG A   1      13.450   0.750  10.274  1.00  0.00     0.021  C
HETATM   43 N43  LIG A   1      14.927  -2.792  12.945  1.00  0.00    -0.343  N
HETATM   44 C44  LIG A   1      14.846  -4.257  12.906  1.00  0.00     0.108  C
HETATM   45 C45  LIG A   1      13.494  -4.729  12.436  1.00  0.00     0.243  C
HETATM   46 O46  LIG A   1      12.498  -3.959  12.490  1.00  0.00    -0.273  O
HETATM   47 C47  LIG A   1      15.265  -4.899  14.252  1.00  0.00    -0.021  C
HETATM   48 C48  LIG A   1      14.202  -4.902  15.380  1.00  0.00    -0.045  C
HETATM   49 C49  LIG A   1      14.723  -5.711  16.577  1.00  0.00    -0.063  C
HETATM   50 C50  LIG A   1      13.835  -3.487  15.833  1.00  0.00    -0.063  C
HETATM   51 N51  LIG A   1      13.331  -6.079  11.976  1.00  0.00    -0.343  N
HETATM   52 C52  LIG A   1      12.849  -6.455  10.639  1.00  0.00     0.105  C
HETATM   53 C53  LIG A   1      14.013  -6.889   9.785  1.00  0.00     0.243  C
HETATM   54 O54  LIG A   1      14.022  -8.056   9.307  1.00  0.00    -0.273  O
HETATM   55 C55  LIG A   1      12.040  -5.352   9.943  1.00  0.00    -0.036  C
HETATM   56 N56  LIG A   1      15.107  -5.995   9.522  1.00  0.00    -0.340  N
HETATM   57 C57  LIG A   1      16.369  -6.426   8.905  1.00  0.00     0.131  C
HETATM   58 C58  LIG A   1      17.473  -6.523   9.943  1.00  0.00     0.245  C
HETATM   59 O59  LIG A   1      18.675  -6.561   9.561  1.00  0.00    -0.273  O
HETATM   60 C60  LIG A   1      16.724  -5.445   7.777  1.00  0.00     0.072  C
HETATM   61 O61  LIG A   1      17.799  -5.934   7.022  1.00  0.00    -0.394  O
HETATM   62 N62  LIG A   1      17.167  -6.665  11.342  1.00  0.00    -0.342  N
HETATM   63 C63  LIG A   1      18.167  -6.791  12.410  1.00  0.00     0.108  C
HETATM   64 C64  LIG A   1      19.200  -5.687  12.325  1.00  0.00     0.243  C
HETATM   65 O65  LIG A   1      20.416  -5.970  12.143  1.00  0.00    -0.273  O
HETATM   66 C66  LIG A   1      18.798  -8.202  12.408  1.00  0.00    -0.024  C
HETATM   67 C67  LIG A   1      17.769  -9.329  12.649  1.00  0.00    -0.050  C
HETATM   68 C68  LIG A   1      17.731  -9.848  14.099  1.00  0.00    -0.041  C
HETATM   69 C69  LIG A   1      17.104  -8.863  15.095  1.00  0.00    -0.008  C
HETATM   70 N70  LIG A   1      18.092  -7.894  15.563  1.00  0.00    -0.330  N
HETATM   71 N71  LIG A   1      18.791  -4.315  12.459  1.00  0.00    -0.342  N
HETATM   72 C72  LIG A   1      19.736  -3.193  12.450  1.00  0.00     0.110  C
HETATM   73 C73  LIG A   1      19.692  -2.495  13.789  1.00  0.00     0.243  C
HETATM   74 O74  LIG A   1      20.739  -2.463  14.493  1.00  0.00    -0.273  O
HETATM   75 C75  LIG A   1      19.434  -2.203  11.289  1.00  0.00    -0.015  C
HETATM   76 C76  LIG A   1      20.534  -1.132  11.179  1.00  0.00    -0.060  C
HETATM   77 C77  LIG A   1      19.203  -2.905   9.926  1.00  0.00    -0.051  C
HETATM   78 C78  LIG A   1      20.429  -3.627   9.361  1.00  0.00    -0.065  C
HETATM   79 N79  LIG A   1      18.491  -1.858  14.260  1.00  0.00    -0.340  N
HETATM   80 C80  LIG A   1      18.527  -0.804  15.278  1.00  0.00     0.131  C
HETATM   81 C81  LIG A   1      17.328  -0.903  16.196  1.00  0.00     0.245  C
HETATM   82 O82  LIG A   1      17.454  -1.528  17.285  1.00  0.00    -0.273  O
HETATM   83 C83  LIG A   1      18.648   0.569  14.600  1.00  0.00     0.072  C
HETATM   84 O84  LIG A   1      18.726   1.585  15.560  1.00  0.00    -0.394  O
HETATM   85 N85  LIG A   1      16.058  -0.320  15.858  1.00  0.00    -0.345  N
HETATM   86 C86  LIG A   1      15.064  -0.038  16.896  1.00  0.00     0.097  C
HETATM   87 C87  LIG A   1      13.762   0.412  16.298  1.00  0.00     0.240  C
HETATM   88 O88  LIG A   1      12.966  -0.450  15.842  1.00  0.00    -0.273  O
HETATM   89 N89  LIG A   1      13.426   1.807  16.252  1.00  0.00    -0.342  N
HETATM   90 C90  LIG A   1      12.103   2.289  15.831  1.00  0.00     0.112  C
HETATM   91 C91  LIG A   1      12.240   3.552  15.017  1.00  0.00     0.243  C
HETATM   92 O92  LIG A   1      13.019   4.464  15.404  1.00  0.00    -0.273  O
HETATM   93 C93  LIG A   1      11.222   2.575  17.057  1.00  0.00     0.002  C
HETATM   94 C94  LIG A   1      10.914   1.320  17.832  1.00  0.00    -0.045  C
HETATM   95 C95  LIG A   1      11.684   0.968  18.953  1.00  0.00    -0.059  C
HETATM   96 C96  LIG A   1       9.864   0.480  17.423  1.00  0.00    -0.059  C
HETATM   97 C97  LIG A   1      11.386  -0.194  19.672  1.00  0.00    -0.062  C
HETATM   98 C98  LIG A   1       9.560  -0.670  18.155  1.00  0.00    -0.062  C
HETATM   99 C99  LIG A   1      10.319  -1.007  19.279  1.00  0.00    -0.062  C
HETATM  100 N100 LIG A   1      11.396   3.760  13.874  1.00  0.00    -0.340  N
HETATM  101 C101 LIG A   1      11.285   5.066  13.205  1.00  0.00     0.134  C
HETATM  102 C102 LIG A   1      10.000   5.163  12.412  1.00  0.00     0.245  C
HETATM  103 O103 LIG A   1       9.311   6.216  12.504  1.00  0.00    -0.273  O
HETATM  104 C104 LIG A   1      12.543   5.395  12.359  1.00  0.00     0.080  C
HETATM  105 O105 LIG A   1      12.373   6.597  11.649  1.00  0.00    -0.391  O
HETATM  106 C106 LIG A   1      12.987   4.265  11.423  1.00  0.00    -0.036  C
HETATM  107 N107 LIG A   1       9.565   4.103  11.544  1.00  0.00    -0.342  N
HETATM  108 C108 LIG A   1       8.250   4.135  10.897  1.00  0.00     0.108  C
HETATM  109 C109 LIG A   1       7.176   3.967  11.941  1.00  0.00     0.243  C
HETATM  110 O110 LIG A   1       6.258   4.827  12.027  1.00  0.00    -0.273  O
HETATM  111 C111 LIG A   1       8.147   3.021   9.830  1.00  0.00    -0.021  C
HETATM  112 C112 LIG A   1       6.867   3.119   8.960  1.00  0.00    -0.045  C
HETATM  113 C113 LIG A   1       7.015   4.188   7.867  1.00  0.00    -0.063  C
HETATM  114 C114 LIG A   1       6.547   1.762   8.322  1.00  0.00    -0.063  C
HETATM  115 N115 LIG A   1       7.184   2.828  12.815  1.00  0.00    -0.343  N
HETATM  116 C116 LIG A   1       6.015   2.458  13.622  1.00  0.00     0.105  C
HETATM  117 C117 LIG A   1       6.380   1.493  14.724  1.00  0.00     0.242  C
HETATM  118 O118 LIG A   1       7.354   0.705  14.585  1.00  0.00    -0.273  O
HETATM  119 C119 LIG A   1       4.936   1.847  12.726  1.00  0.00    -0.036  C
HETATM  120 N120 LIG A   1       5.564   1.421  15.903  1.00  0.00    -0.343  N
HETATM  121 C121 LIG A   1       5.836   0.473  16.991  1.00  0.00     0.108  C
HETATM  122 C122 LIG A   1       5.464  -0.935  16.594  1.00  0.00     0.243  C
HETATM  123 O123 LIG A   1       5.931  -1.895  17.264  1.00  0.00    -0.273  O
HETATM  124 C124 LIG A   1       5.076   0.873  18.274  1.00  0.00    -0.021  C
HETATM  125 C125 LIG A   1       5.498   2.250  18.845  1.00  0.00    -0.045  C
HETATM  126 C126 LIG A   1       6.950   2.243  19.354  1.00  0.00    -0.063  C
HETATM  127 C127 LIG A   1       4.551   2.653  19.981  1.00  0.00    -0.063  C
HETATM  128 N128 LIG A   1       4.570  -1.194  15.498  1.00  0.00    -0.342  N
HETATM  129 C129 LIG A   1       4.412  -2.527  14.900  1.00  0.00     0.110  C
HETATM  130 C130 LIG A   1       4.489  -2.431  13.393  1.00  0.00     0.243  C
HETATM  131 O131 LIG A   1       3.985  -1.436  12.806  1.00  0.00    -0.273  O
HETATM  132 C132 LIG A   1       3.106  -3.197  15.406  1.00  0.00    -0.018  C
HETATM  133 C133 LIG A   1       1.835  -2.436  14.996  1.00  0.00    -0.060  C
HETATM  134 C134 LIG A   1       3.011  -4.663  14.959  1.00  0.00    -0.060  C
HETATM  135 N135 LIG A   1       5.116  -3.483  12.634  1.00  0.00    -0.343  N
HETATM  136 C136 LIG A   1       5.576  -3.366  11.242  1.00  0.00     0.108  C
HETATM  137 C137 LIG A   1       6.737  -2.410  11.157  1.00  0.00     0.243  C
HETATM  138 O138 LIG A   1       6.623  -1.250  11.634  1.00  0.00    -0.273  O
HETATM  139 C139 LIG A   1       4.422  -2.993  10.282  1.00  0.00    -0.024  C
HETATM  140 C140 LIG A   1       4.776  -3.186   8.793  1.00  0.00    -0.050  C
HETATM  141 C141 LIG A   1       5.322  -1.904   8.146  1.00  0.00    -0.041  C
HETATM  142 C142 LIG A   1       5.661  -2.130   6.671  1.00  0.00    -0.008  C
HETATM  143 N143 LIG A   1       6.207  -0.909   6.088  1.00  0.00    -0.330  N
HETATM  144 N144 LIG A   1       7.969  -2.817  10.532  1.00  0.00    -0.342  N
HETATM  145 C145 LIG A   1       9.222  -2.058  10.647  1.00  0.00     0.116  C
HETATM  146 C146 LIG A   1       9.533  -1.827  12.107  1.00  0.00     0.243  C
HETATM  147 O147 LIG A   1       9.549  -0.660  12.589  1.00  0.00    -0.273  O
HETATM  148 C148 LIG A   1       9.155  -0.760   9.809  1.00  0.00     0.056  C
HETATM  149 C149 LIG A   1       9.343  -1.015   8.339  1.00  0.00     0.220  C
HETATM  150 O150 LIG A   1       8.845  -2.039   7.800  1.00  0.00    -0.275  O
HETATM  151 N151 LIG A   1      10.035  -0.063   7.532  1.00  0.00    -0.370  N
HETATM  152 N152 LIG A   1       9.734  -2.962  12.961  1.00  0.00    -0.343  N
HETATM  153 C153 LIG A   1       9.596  -2.868  14.418  1.00  0.00     0.105  C
HETATM  154 C154 LIG A   1      10.199  -4.064  15.118  1.00  0.00     0.243  C
HETATM  155 O155 LIG A   1      10.393  -5.145  14.495  1.00  0.00    -0.273  O
HETATM  156 C156 LIG A   1       8.116  -2.766  14.781  1.00  0.00    -0.036  C
HETATM  157 N157 LIG A   1      10.462  -3.995  16.527  1.00  0.00    -0.340  N
HETATM  158 C158 LIG A   1      10.688  -5.195  17.340  1.00  0.00     0.131  C
HETATM  159 C159 LIG A   1       9.441  -6.041  17.377  1.00  0.00     0.245  C
HETATM  160 O160 LIG A   1       9.545  -7.296  17.292  1.00  0.00    -0.273  O
HETATM  161 C161 LIG A   1      11.102  -4.806  18.764  1.00  0.00     0.072  C
HETATM  162 O162 LIG A   1      11.478  -5.950  19.482  1.00  0.00    -0.394  O
HETATM  163 N163 LIG A   1       8.149  -5.434  17.554  1.00  0.00    -0.339  N
HETATM  164 C164 LIG A   1       6.916  -6.225  17.628  1.00  0.00     0.153  C
HETATM  165 C165 LIG A   1       6.650  -6.856  16.288  1.00  0.00     0.328  C
HETATM  166 O166 LIG A   1       6.450  -8.097  16.205  1.00  0.00    -0.250  O
HETATM  167 C167 LIG A   1       5.726  -5.338  18.065  1.00  0.00     0.082  C
HETATM  168 O168 LIG A   1       6.053  -4.688  19.266  1.00  0.00    -0.391  O
HETATM  169 C169 LIG A   1       4.449  -6.162  18.275  1.00  0.00    -0.036  C
HETATM  170 O170 LIG A   1       6.614  -6.069  15.142  1.00  0.00    -0.480  O
ENDROOT
TORSDOF 0
                                                                                                                                                                             
ENDMDL
MODEL 3
REMARK VINA RESULT:    -7.095      2.283      3.402
REMARK INTER + INTRA:          -7.095
REMARK INTER:                  -7.095
REMARK INTRA:                   0.000
REMARK UNBOUND:                 0.000
ROOT
HETATM    1 N1   LIG A   1       5.273  -5.985  14.254  1.00  0.00    -0.320  N
HETATM    2 C2   LIG A   1       5.419  -6.946  15.353  1.00  0.00     0.087  C
HETATM    3 C3   LIG A   1       5.597  -8.347  14.816  1.00  0.00     0.237  C
HETATM    4 O4   LIG A   1       6.247  -9.184  15.499  1.00  0.00    -0.273  O
HETATM    5 C5   LIG A   1       4.216  -6.877  16.340  1.00  0.00    -0.020  C
HETATM    6 C6   LIG A   1       4.274  -5.590  17.183  1.00  0.00    -0.061  C
HETATM    7 C7   LIG A   1       2.854  -7.019  15.613  1.00  0.00    -0.052  C
HETATM    8 C8   LIG A   1       1.676  -7.167  16.576  1.00  0.00    -0.065  C
HETATM    9 N9   LIG A   1       5.017  -8.743  13.561  1.00  0.00    -0.341  N
HETATM   10 C10  LIG A   1       5.390  -9.995  12.898  1.00  0.00     0.131  C
HETATM   11 C11  LIG A   1       6.847  -9.955  12.521  1.00  0.00     0.245  C
HETATM   12 O12  LIG A   1       7.569 -10.968  12.727  1.00  0.00    -0.273  O
HETATM   13 C13  LIG A   1       4.520 -10.224  11.652  1.00  0.00     0.072  C
HETATM   14 O14  LIG A   1       4.773 -11.486  11.095  1.00  0.00    -0.394  O
HETATM   15 N15  LIG A   1       7.406  -8.777  11.919  1.00  0.00    -0.342  N
HETATM   16 C16  LIG A   1       8.850  -8.590  11.765  1.00  0.00     0.108  C
HETATM   17 C17  LIG A   1       9.428  -8.162  13.091  1.00  0.00     0.243  C
HETATM   18 O18  LIG A   1       9.384  -6.949  13.436  1.00  0.00    -0.273  O
HETATM   19 C19  LIG A   1       9.147  -7.545  10.664  1.00  0.00    -0.021  C
HETATM   20 C20  LIG A   1       8.615  -7.938   9.264  1.00  0.00    -0.045  C
HETATM   21 C21  LIG A   1       8.577  -6.705   8.349  1.00  0.00    -0.063  C
HETATM   22 C22  LIG A   1       9.463  -9.039   8.615  1.00  0.00    -0.063  C
HETATM   23 N23  LIG A   1       9.934  -9.147  14.004  1.00  0.00    -0.343  N
HETATM   24 C24  LIG A   1      10.122  -8.872  15.434  1.00  0.00     0.105  C
HETATM   25 C25  LIG A   1      11.543  -8.468  15.722  1.00  0.00     0.242  C
HETATM   26 O26  LIG A   1      12.458  -8.794  14.918  1.00  0.00    -0.273  O
HETATM   27 C27  LIG A   1       9.757 -10.111  16.252  1.00  0.00    -0.036  C
HETATM   28 N28  LIG A   1      11.852  -7.768  16.943  1.00  0.00    -0.342  N
HETATM   29 C29  LIG A   1      13.203  -7.559  17.492  1.00  0.00     0.110  C
HETATM   30 C30  LIG A   1      14.186  -7.151  16.413  1.00  0.00     0.246  C
HETATM   31 O31  LIG A   1      15.143  -7.909  16.101  1.00  0.00    -0.272  O
HETATM   32 C32  LIG A   1      13.668  -8.767  18.364  1.00  0.00    -0.015  C
HETATM   33 C33  LIG A   1      12.858  -8.817  19.673  1.00  0.00    -0.060  C
HETATM   34 C34  LIG A   1      13.587 -10.126  17.622  1.00  0.00    -0.051  C
HETATM   35 C35  LIG A   1      14.452 -11.207  18.269  1.00  0.00    -0.065  C
HETATM   36 N36  LIG A   1      14.009  -5.917  15.701  1.00  0.00    -0.329  N
HETATM   37 C37  LIG A   1      14.339  -5.753  14.293  1.00  0.00     0.111  C
HETATM   38 C38  LIG A   1      15.825  -5.603  14.095  1.00  0.00     0.243  C
HETATM   39 O39  LIG A   1      16.585  -5.450  15.091  1.00  0.00    -0.273  O
HETATM   40 C40  LIG A   1      13.609  -4.477  13.875  1.00  0.00    -0.022  C
HETATM   41 C41  LIG A   1      13.416  -3.692  15.166  1.00  0.00    -0.033  C
HETATM   42 C42  LIG A   1      13.395  -4.733  16.275  1.00  0.00     0.021  C
HETATM   43 N43  LIG A   1      16.365  -5.583  12.766  1.00  0.00    -0.343  N
HETATM   44 C44  LIG A   1      17.791  -5.354  12.502  1.00  0.00     0.108  C
HETATM   45 C45  LIG A   1      18.243  -4.008  13.009  1.00  0.00     0.243  C
HETATM   46 O46  LIG A   1      17.401  -3.097  13.230  1.00  0.00    -0.273  O
HETATM   47 C47  LIG A   1      18.151  -5.579  11.012  1.00  0.00    -0.021  C
HETATM   48 C48  LIG A   1      17.816  -4.423  10.035  1.00  0.00    -0.045  C
HETATM   49 C49  LIG A   1      18.379  -4.746   8.643  1.00  0.00    -0.063  C
HETATM   50 C50  LIG A   1      16.311  -4.166   9.936  1.00  0.00    -0.063  C
HETATM   51 N51  LIG A   1      19.643  -3.748  13.187  1.00  0.00    -0.343  N
HETATM   52 C52  LIG A   1      20.266  -3.353  14.460  1.00  0.00     0.105  C
HETATM   53 C53  LIG A   1      20.972  -4.539  15.067  1.00  0.00     0.243  C
HETATM   54 O54  LIG A   1      22.213  -4.469  15.282  1.00  0.00    -0.273  O
HETATM   55 C55  LIG A   1      19.282  -2.730  15.459  1.00  0.00    -0.036  C
HETATM   56 N56  LIG A   1      20.251  -5.739  15.389  1.00  0.00    -0.340  N
HETATM   57 C57  LIG A   1      20.910  -7.000  15.756  1.00  0.00     0.131  C
HETATM   58 C58  LIG A   1      20.865  -7.989  14.605  1.00  0.00     0.245  C
HETATM   59 O59  LIG A   1      21.085  -9.211  14.833  1.00  0.00    -0.273  O
HETATM   60 C60  LIG A   1      20.236  -7.556  17.020  1.00  0.00     0.072  C
HETATM   61 O61  LIG A   1      20.967  -8.639  17.529  1.00  0.00    -0.394  O
HETATM   62 N62  LIG A   1      20.667  -7.543  13.250  1.00  0.00    -0.342  N
HETATM   63 C63  LIG A   1      20.635  -8.424  12.076  1.00  0.00     0.108  C
HETATM   64 C64  LIG A   1      19.666  -9.569  12.277  1.00  0.00     0.243  C
HETATM   65 O65  LIG A   1      20.081 -10.761  12.258  1.00  0.00    -0.273  O
HETATM   66 C66  LIG A   1      22.059  -8.901  11.708  1.00  0.00    -0.024  C
HETATM   67 C67  LIG A   1      23.016  -7.743  11.350  1.00  0.00    -0.050  C
HETATM   68 C68  LIG A   1      23.196  -7.520   9.836  1.00  0.00    -0.041  C
HETATM   69 C69  LIG A   1      21.966  -6.910   9.147  1.00  0.00    -0.008  C
HETATM   70 N70  LIG A   1      21.002  -7.947   8.788  1.00  0.00    -0.330  N
HETATM   71 N71  LIG A   1      18.269  -9.296  12.483  1.00  0.00    -0.342  N
HETATM   72 C72  LIG A   1      17.259 -10.350  12.624  1.00  0.00     0.110  C
HETATM   73 C73  LIG A   1      16.280 -10.257  11.477  1.00  0.00     0.243  C
HETATM   74 O74  LIG A   1      16.179 -11.233  10.684  1.00  0.00    -0.273  O
HETATM   75 C75  LIG A   1      16.529 -10.259  13.996  1.00  0.00    -0.015  C
HETATM   76 C76  LIG A   1      15.604 -11.470  14.207  1.00  0.00    -0.060  C
HETATM   77 C77  LIG A   1      17.494 -10.081  15.196  1.00  0.00    -0.051  C
HETATM   78 C78  LIG A   1      18.422 -11.271  15.454  1.00  0.00    -0.065  C
HETATM   79 N79  LIG A   1      15.458  -9.090  11.289  1.00  0.00    -0.340  N
HETATM   80 C80  LIG A   1      14.212  -9.144  10.520  1.00  0.00     0.131  C
HETATM   81 C81  LIG A   1      14.006  -7.862   9.742  1.00  0.00     0.245  C
HETATM   82 O82  LIG A   1      14.382  -7.823   8.538  1.00  0.00    -0.273  O
HETATM   83 C83  LIG A   1      13.037  -9.469  11.456  1.00  0.00     0.072  C
HETATM   84 O84  LIG A   1      11.844  -9.564  10.731  1.00  0.00    -0.394  O
HETATM   85 N85  LIG A   1      13.411  -6.696  10.335  1.00  0.00    -0.345  N
HETATM   86 C86  LIG A   1      12.825  -5.646   9.498  1.00  0.00     0.097  C
HETATM   87 C87  LIG A   1      12.413  -4.459  10.320  1.00  0.00     0.240  C
HETATM   88 O88  LIG A   1      13.287  -3.622  10.669  1.00  0.00    -0.273  O
HETATM   89 N89  LIG A   1      11.041  -4.275  10.698  1.00  0.00    -0.342  N
HETATM   90 C90  LIG A   1      10.558  -3.054  11.357  1.00  0.00     0.112  C
HETATM   91 C91  LIG A   1       9.522  -3.395  12.399  1.00  0.00     0.243  C
HETATM   92 O92  LIG A   1       8.614  -4.227  12.130  1.00  0.00    -0.273  O
HETATM   93 C93  LIG A   1       9.936  -2.100  10.325  1.00  0.00     0.002  C
HETATM   94 C94  LIG A   1      10.958  -1.593   9.341  1.00  0.00    -0.045  C
HETATM   95 C95  LIG A   1      11.115  -2.216   8.092  1.00  0.00    -0.059  C
HETATM   96 C96  LIG A   1      11.778  -0.503   9.677  1.00  0.00    -0.059  C
HETATM   97 C97  LIG A   1      12.060  -1.735   7.181  1.00  0.00    -0.062  C
HETATM   98 C98  LIG A   1      12.709  -0.015   8.756  1.00  0.00    -0.062  C
HETATM   99 C99  LIG A   1      12.849  -0.630   7.509  1.00  0.00    -0.062  C
HETATM  100 N100 LIG A   1       9.503  -2.685  13.647  1.00  0.00    -0.340  N
HETATM  101 C101 LIG A   1       8.374  -2.772  14.586  1.00  0.00     0.134  C
HETATM  102 C102 LIG A   1       8.350  -1.582  15.520  1.00  0.00     0.245  C
HETATM  103 O103 LIG A   1       7.250  -1.001  15.731  1.00  0.00    -0.273  O
HETATM  104 C104 LIG A   1       8.344  -4.130  15.337  1.00  0.00     0.080  C
HETATM  105 O105 LIG A   1       7.320  -4.151  16.300  1.00  0.00    -0.391  O
HETATM  106 C106 LIG A   1       9.687  -4.537  15.957  1.00  0.00    -0.036  C
HETATM  107 N107 LIG A   1       9.537  -1.119  16.186  1.00  0.00    -0.342  N
HETATM  108 C108 LIG A   1       9.542   0.121  16.968  1.00  0.00     0.108  C
HETATM  109 C109 LIG A   1       9.385   1.297  16.039  1.00  0.00     0.243  C
HETATM  110 O110 LIG A   1       8.455   2.124  16.240  1.00  0.00    -0.273  O
HETATM  111 C111 LIG A   1      10.852   0.242  17.779  1.00  0.00    -0.021  C
HETATM  112 C112 LIG A   1      10.845   1.420  18.788  1.00  0.00    -0.045  C
HETATM  113 C113 LIG A   1      10.061   1.062  20.059  1.00  0.00    -0.063  C
HETATM  114 C114 LIG A   1      12.278   1.820  19.154  1.00  0.00    -0.063  C
HETATM  115 N115 LIG A   1      10.299   1.487  14.947  1.00  0.00    -0.343  N
HETATM  116 C116 LIG A   1      10.384   2.757  14.216  1.00  0.00     0.105  C
HETATM  117 C117 LIG A   1      11.107   2.597  12.901  1.00  0.00     0.242  C
HETATM  118 O118 LIG A   1      11.983   1.701  12.760  1.00  0.00    -0.273  O
HETATM  119 C119 LIG A   1      11.087   3.808  15.076  1.00  0.00    -0.036  C
HETATM  120 N120 LIG A   1      10.849   3.519  11.832  1.00  0.00    -0.343  N
HETATM  121 C121 LIG A   1      11.550   3.448  10.544  1.00  0.00     0.108  C
HETATM  122 C122 LIG A   1      12.977   3.927  10.673  1.00  0.00     0.243  C
HETATM  123 O123 LIG A   1      13.799   3.626   9.767  1.00  0.00    -0.273  O
HETATM  124 C124 LIG A   1      10.816   4.276   9.468  1.00  0.00    -0.021  C
HETATM  125 C125 LIG A   1       9.386   3.766   9.158  1.00  0.00    -0.045  C
HETATM  126 C126 LIG A   1       9.398   2.375   8.501  1.00  0.00    -0.063  C
HETATM  127 C127 LIG A   1       8.664   4.765   8.247  1.00  0.00    -0.063  C
HETATM  128 N128 LIG A   1      13.398   4.740  11.781  1.00  0.00    -0.342  N
HETATM  129 C129 LIG A   1      14.812   4.981  12.096  1.00  0.00     0.110  C
HETATM  130 C130 LIG A   1      15.060   4.757  13.572  1.00  0.00     0.243  C
HETATM  131 O131 LIG A   1      14.181   5.099  14.408  1.00  0.00    -0.273  O
HETATM  132 C132 LIG A   1      15.245   6.390  11.609  1.00  0.00    -0.018  C
HETATM  133 C133 LIG A   1      14.492   7.533  12.311  1.00  0.00    -0.060  C
HETATM  134 C134 LIG A   1      16.761   6.597  11.742  1.00  0.00    -0.060  C
HETATM  135 N135 LIG A   1      16.302   4.177  14.015  1.00  0.00    -0.343  N
HETATM  136 C136 LIG A   1      16.535   3.582  15.341  1.00  0.00     0.108  C
HETATM  137 C137 LIG A   1      15.719   2.325  15.497  1.00  0.00     0.243  C
HETATM  138 O138 LIG A   1      14.477   2.361  15.292  1.00  0.00    -0.273  O
HETATM  139 C139 LIG A   1      16.290   4.599  16.480  1.00  0.00    -0.024  C
HETATM  140 C140 LIG A   1      16.837   4.133  17.846  1.00  0.00    -0.050  C
HETATM  141 C141 LIG A   1      15.779   3.399  18.685  1.00  0.00    -0.041  C
HETATM  142 C142 LIG A   1      16.353   2.953  20.031  1.00  0.00    -0.008  C
HETATM  143 N143 LIG A   1      15.341   2.232  20.795  1.00  0.00    -0.330  N
HETATM  144 N144 LIG A   1      16.355   1.090  15.879  1.00  0.00    -0.342  N
HETATM  145 C145 LIG A   1      15.694  -0.219  15.788  1.00  0.00     0.116  C
HETATM  146 C146 LIG A   1      15.171  -0.418  14.386  1.00  0.00     0.243  C
HETATM  147 O147 LIG A   1      13.932  -0.512  14.163  1.00  0.00    -0.273  O
HETATM  148 C148 LIG A   1      14.613  -0.364  16.885  1.00  0.00     0.056  C
HETATM  149 C149 LIG A   1      15.202  -0.657  18.237  1.00  0.00     0.220  C
HETATM  150 O150 LIG A   1      16.276  -0.107  18.599  1.00  0.00    -0.275  O
HETATM  151 N151 LIG A   1      14.512  -1.516  19.146  1.00  0.00    -0.370  N
HETATM  152 N152 LIG A   1      16.102  -0.421  13.294  1.00  0.00    -0.343  N
HETATM  153 C153 LIG A   1      15.676  -0.162  11.914  1.00  0.00     0.105  C
HETATM  154 C154 LIG A   1      16.732  -0.571  10.913  1.00  0.00     0.243  C
HETATM  155 O155 LIG A   1      17.936  -0.706  11.267  1.00  0.00    -0.273  O
HETATM  156 C156 LIG A   1      15.375   1.326  11.748  1.00  0.00    -0.036  C
HETATM  157 N157 LIG A   1      16.374  -0.710   9.531  1.00  0.00    -0.340  N
HETATM  158 C158 LIG A   1      17.378  -0.734   8.462  1.00  0.00     0.131  C
HETATM  159 C159 LIG A   1      18.090   0.592   8.385  1.00  0.00     0.245  C
HETATM  160 O160 LIG A   1      19.337   0.612   8.191  1.00  0.00    -0.273  O
HETATM  161 C161 LIG A   1      16.719  -1.056   7.115  1.00  0.00     0.072  C
HETATM  162 O162 LIG A   1      17.702  -1.243   6.134  1.00  0.00    -0.394  O
HETATM  163 N163 LIG A   1      17.355   1.825   8.486  1.00  0.00    -0.339  N
HETATM  164 C164 LIG A   1      18.007   3.135   8.385  1.00  0.00     0.153  C
HETATM  165 C165 LIG A   1      18.894   3.342   9.581  1.00  0.00     0.328  C
HETATM  166 O166 LIG A   1      20.103   3.662   9.422  1.00  0.00    -0.250  O
HETATM  167 C167 LIG A   1      16.950   4.261   8.282  1.00  0.00     0.082  C
HETATM  168 O168 LIG A   1      16.079   3.979   7.216  1.00  0.00    -0.391  O
HETATM  169 C169 LIG A   1      17.599   5.631   8.045  1.00  0.00    -0.036  C
HETATM  170 O170 LIG A   1      18.381   3.192  10.865  1.00  0.00    -0.480  O
ENDROOT
TORSDOF 0
                                                                                                                                                                             
ENDMDL
