MODEL 1
REMARK VINA RESULT:     6.930      0.000      0.000
REMARK INTER + INTRA:           6.930
REMARK INTER:                   6.930
REMARK INTRA:                   0.000
REMARK UNBOUND:                 0.000
ROOT
HETATM    1 N1   LIG A   1     -27.915 -10.398  15.563  1.00  0.00    -0.320  N
HETATM    2 C2   LIG A   1     -27.305 -11.242  16.595  1.00  0.00     0.088  C
HETATM    3 C3   LIG A   1     -27.782 -12.671  16.493  1.00  0.00     0.237  C
HETATM    4 O4   LIG A   1     -28.960 -12.920  16.111  1.00  0.00    -0.273  O
HETATM    5 C5   LIG A   1     -27.602 -10.688  17.997  1.00  0.00    -0.004  C
HETATM    6 C6   LIG A   1     -27.005  -9.318  18.186  1.00  0.00    -0.046  C
HETATM    7 C7   LIG A   1     -25.680  -9.181  18.635  1.00  0.00    -0.059  C
HETATM    8 C8   LIG A   1     -27.746  -8.168  17.865  1.00  0.00    -0.059  C
HETATM    9 C9   LIG A   1     -25.112  -7.910  18.777  1.00  0.00    -0.062  C
HETATM   10 C10  LIG A   1     -27.174  -6.900  18.006  1.00  0.00    -0.062  C
HETATM   11 C11  LIG A   1     -25.858  -6.771  18.461  1.00  0.00    -0.062  C
HETATM   12 N12  LIG A   1     -26.913 -13.742  16.886  1.00  0.00    -0.343  N
HETATM   13 C13  LIG A   1     -27.289 -15.151  16.722  1.00  0.00     0.110  C
HETATM   14 C14  LIG A   1     -28.183 -15.555  17.867  1.00  0.00     0.243  C
HETATM   15 O15  LIG A   1     -27.872 -15.238  19.046  1.00  0.00    -0.273  O
HETATM   16 C16  LIG A   1     -26.032 -16.058  16.636  1.00  0.00    -0.018  C
HETATM   17 C17  LIG A   1     -26.416 -17.535  16.440  1.00  0.00    -0.060  C
HETATM   18 C18  LIG A   1     -25.114 -15.619  15.481  1.00  0.00    -0.060  C
HETATM   19 N19  LIG A   1     -29.361 -16.335  17.614  1.00  0.00    -0.342  N
HETATM   20 C20  LIG A   1     -30.444 -16.474  18.597  1.00  0.00     0.116  C
HETATM   21 C21  LIG A   1     -30.039 -17.394  19.723  1.00  0.00     0.243  C
HETATM   22 O22  LIG A   1     -28.988 -18.086  19.630  1.00  0.00    -0.273  O
HETATM   23 C23  LIG A   1     -31.723 -17.002  17.917  1.00  0.00     0.056  C
HETATM   24 C24  LIG A   1     -32.244 -16.019  16.907  1.00  0.00     0.220  C
HETATM   25 O25  LIG A   1     -32.845 -14.982  17.297  1.00  0.00    -0.275  O
HETATM   26 N26  LIG A   1     -32.036 -16.232  15.511  1.00  0.00    -0.370  N
HETATM   27 N27  LIG A   1     -30.861 -17.486  20.898  1.00  0.00    -0.343  N
HETATM   28 C28  LIG A   1     -30.433 -18.214  22.099  1.00  0.00     0.108  C
HETATM   29 C29  LIG A   1     -30.326 -19.692  21.798  1.00  0.00     0.243  C
HETATM   30 O30  LIG A   1     -31.225 -20.232  21.098  1.00  0.00    -0.273  O
HETATM   31 C31  LIG A   1     -31.433 -17.997  23.256  1.00  0.00    -0.024  C
HETATM   32 C32  LIG A   1     -31.348 -16.573  23.820  1.00  0.00    -0.050  C
HETATM   33 C33  LIG A   1     -32.423 -16.311  24.880  1.00  0.00    -0.041  C
HETATM   34 C34  LIG A   1     -32.322 -14.875  25.409  1.00  0.00    -0.008  C
HETATM   35 N35  LIG A   1     -33.461 -14.570  26.270  1.00  0.00    -0.330  N
HETATM   36 N36  LIG A   1     -29.249 -20.513  22.287  1.00  0.00    -0.343  N
HETATM   37 C37  LIG A   1     -28.281 -20.128  23.321  1.00  0.00     0.108  C
HETATM   38 C38  LIG A   1     -26.907 -20.036  22.710  1.00  0.00     0.243  C
HETATM   39 O39  LIG A   1     -26.267 -21.084  22.424  1.00  0.00    -0.273  O
HETATM   40 C40  LIG A   1     -28.290 -21.151  24.474  1.00  0.00    -0.021  C
HETATM   41 C41  LIG A   1     -29.584 -21.096  25.320  1.00  0.00    -0.045  C
HETATM   42 C42  LIG A   1     -29.755 -22.403  26.103  1.00  0.00    -0.063  C
HETATM   43 C43  LIG A   1     -29.575 -19.905  26.292  1.00  0.00    -0.063  C
HETATM   44 N44  LIG A   1     -26.320 -18.756  22.457  1.00  0.00    -0.342  N
HETATM   45 C45  LIG A   1     -24.988 -18.438  22.981  1.00  0.00     0.116  C
HETATM   46 C46  LIG A   1     -25.103 -18.000  24.416  1.00  0.00     0.243  C
HETATM   47 O47  LIG A   1     -26.211 -17.593  24.858  1.00  0.00    -0.273  O
HETATM   48 C48  LIG A   1     -24.327 -17.336  22.138  1.00  0.00     0.056  C
HETATM   49 C49  LIG A   1     -23.997 -17.841  20.765  1.00  0.00     0.220  C
HETATM   50 O50  LIG A   1     -22.863 -18.343  20.539  1.00  0.00    -0.275  O
HETATM   51 N51  LIG A   1     -24.976 -17.814  19.729  1.00  0.00    -0.370  N
HETATM   52 N52  LIG A   1     -23.953 -18.029  25.277  1.00  0.00    -0.343  N
HETATM   53 C53  LIG A   1     -24.031 -17.681  26.699  1.00  0.00     0.108  C
HETATM   54 C54  LIG A   1     -22.942 -16.704  27.057  1.00  0.00     0.243  C
HETATM   55 O55  LIG A   1     -21.742 -16.969  26.771  1.00  0.00    -0.273  O
HETATM   56 C56  LIG A   1     -23.939 -18.944  27.572  1.00  0.00    -0.022  C
HETATM   57 C57  LIG A   1     -25.209 -19.806  27.467  1.00  0.00    -0.033  C
HETATM   58 C58  LIG A   1     -25.181 -20.951  28.487  1.00  0.00     0.018  C
HETATM   59 N59  LIG A   1     -26.488 -21.605  28.571  1.00  0.00    -0.357  N
HETATM   60 C60  LIG A   1     -27.580 -21.062  29.329  1.00  0.00     0.185  C
HETATM   61 N61  LIG A   1     -27.490 -19.881  29.855  1.00  0.00    -0.270  N
HETATM   62 N62  LIG A   1     -28.773 -21.830  29.506  1.00  0.00    -0.370  N
HETATM   63 N63  LIG A   1     -23.274 -15.498  27.763  1.00  0.00    -0.342  N
HETATM   64 C64  LIG A   1     -22.300 -14.449  28.093  1.00  0.00     0.110  C
HETATM   65 C65  LIG A   1     -22.523 -13.946  29.508  1.00  0.00     0.243  C
HETATM   66 O66  LIG A   1     -23.381 -14.508  30.242  1.00  0.00    -0.273  O
HETATM   67 C67  LIG A   1     -22.337 -13.310  27.023  1.00  0.00    -0.015  C
HETATM   68 C68  LIG A   1     -21.583 -13.752  25.759  1.00  0.00    -0.060  C
HETATM   69 C69  LIG A   1     -23.760 -12.840  26.622  1.00  0.00    -0.051  C
HETATM   70 C70  LIG A   1     -24.525 -12.158  27.751  1.00  0.00    -0.065  C
HETATM   71 N71  LIG A   1     -21.715 -12.887  30.049  1.00  0.00    -0.342  N
HETATM   72 C72  LIG A   1     -21.879 -12.410  31.434  1.00  0.00     0.110  C
HETATM   73 C73  LIG A   1     -23.278 -11.872  31.656  1.00  0.00     0.246  C
HETATM   74 O74  LIG A   1     -23.858 -11.257  30.722  1.00  0.00    -0.272  O
HETATM   75 C75  LIG A   1     -20.793 -11.365  31.833  1.00  0.00    -0.015  C
HETATM   76 C76  LIG A   1     -19.403 -12.025  31.890  1.00  0.00    -0.060  C
HETATM   77 C77  LIG A   1     -20.792 -10.113  30.917  1.00  0.00    -0.051  C
HETATM   78 C78  LIG A   1     -19.947  -8.969  31.480  1.00  0.00    -0.065  C
HETATM   79 N79  LIG A   1     -23.968 -12.067  32.904  1.00  0.00    -0.329  N
HETATM   80 C80  LIG A   1     -25.364 -12.481  32.983  1.00  0.00     0.111  C
HETATM   81 C81  LIG A   1     -26.291 -11.499  32.312  1.00  0.00     0.243  C
HETATM   82 O82  LIG A   1     -26.175 -10.266  32.551  1.00  0.00    -0.273  O
HETATM   83 C83  LIG A   1     -25.674 -12.603  34.475  1.00  0.00    -0.022  C
HETATM   84 C84  LIG A   1     -24.320 -12.689  35.172  1.00  0.00    -0.033  C
HETATM   85 C85  LIG A   1     -23.311 -12.086  34.203  1.00  0.00     0.021  C
HETATM   86 N86  LIG A   1     -27.330 -11.980  31.443  1.00  0.00    -0.342  N
HETATM   87 C87  LIG A   1     -28.458 -11.178  30.958  1.00  0.00     0.110  C
HETATM   88 C88  LIG A   1     -27.970 -10.084  30.042  1.00  0.00     0.243  C
HETATM   89 O89  LIG A   1     -27.654  -8.953  30.504  1.00  0.00    -0.273  O
HETATM   90 C90  LIG A   1     -29.343 -10.654  32.124  1.00  0.00    -0.018  C
HETATM   91 C91  LIG A   1     -29.764 -11.800  33.058  1.00  0.00    -0.060  C
HETATM   92 C92  LIG A   1     -30.602  -9.951  31.586  1.00  0.00    -0.060  C
HETATM   93 N93  LIG A   1     -27.886 -10.325  28.634  1.00  0.00    -0.343  N
HETATM   94 C94  LIG A   1     -28.371  -9.331  27.673  1.00  0.00     0.108  C
HETATM   95 C95  LIG A   1     -29.878  -9.277  27.725  1.00  0.00     0.243  C
HETATM   96 O96  LIG A   1     -30.459  -8.158  27.706  1.00  0.00    -0.273  O
HETATM   97 C97  LIG A   1     -27.888  -9.681  26.252  1.00  0.00    -0.024  C
HETATM   98 C98  LIG A   1     -28.101  -8.524  25.266  1.00  0.00    -0.050  C
HETATM   99 C99  LIG A   1     -27.585  -8.891  23.869  1.00  0.00    -0.041  C
HETATM  100 C100 LIG A   1     -27.824  -7.747  22.880  1.00  0.00    -0.008  C
HETATM  101 N101 LIG A   1     -27.236  -8.069  21.585  1.00  0.00    -0.330  N
HETATM  102 N102 LIG A   1     -30.648 -10.489  27.765  1.00  0.00    -0.345  N
HETATM  103 C103 LIG A   1     -32.107 -10.493  27.733  1.00  0.00     0.097  C
HETATM  104 C104 LIG A   1     -32.594 -10.162  26.356  1.00  0.00     0.240  C
HETATM  105 O105 LIG A   1     -33.484  -9.282  26.205  1.00  0.00    -0.273  O
HETATM  106 N106 LIG A   1     -32.072 -10.868  25.221  1.00  0.00    -0.342  N
HETATM  107 C107 LIG A   1     -32.436 -10.524  23.843  1.00  0.00     0.112  C
HETATM  108 C108 LIG A   1     -32.076 -11.662  22.918  1.00  0.00     0.243  C
HETATM  109 O109 LIG A   1     -32.990 -12.228  22.256  1.00  0.00    -0.273  O
HETATM  110 C110 LIG A   1     -31.743  -9.211  23.425  1.00  0.00     0.002  C
HETATM  111 C111 LIG A   1     -32.075  -8.820  22.007  1.00  0.00    -0.045  C
HETATM  112 C112 LIG A   1     -33.331  -8.273  21.699  1.00  0.00    -0.059  C
HETATM  113 C113 LIG A   1     -31.147  -9.038  20.976  1.00  0.00    -0.059  C
HETATM  114 C114 LIG A   1     -33.650  -7.944  20.377  1.00  0.00    -0.062  C
HETATM  115 C115 LIG A   1     -31.470  -8.712  19.656  1.00  0.00    -0.062  C
HETATM  116 C116 LIG A   1     -32.721  -8.164  19.356  1.00  0.00    -0.062  C
HETATM  117 N117 LIG A   1     -30.713 -12.097  22.791  1.00  0.00    -0.340  N
HETATM  118 C118 LIG A   1     -30.310 -13.204  21.918  1.00  0.00     0.131  C
HETATM  119 C119 LIG A   1     -29.347 -14.144  22.612  1.00  0.00     0.245  C
HETATM  120 O120 LIG A   1     -28.902 -15.133  21.969  1.00  0.00    -0.273  O
HETATM  121 C121 LIG A   1     -29.694 -12.639  20.629  1.00  0.00     0.072  C
HETATM  122 O122 LIG A   1     -28.422 -12.101  20.871  1.00  0.00    -0.394  O
HETATM  123 N123 LIG A   1     -28.955 -13.951  23.984  1.00  0.00    -0.342  N
HETATM  124 C124 LIG A   1     -27.772 -14.600  24.571  1.00  0.00     0.109  C
HETATM  125 C125 LIG A   1     -27.603 -14.182  26.013  1.00  0.00     0.243  C
HETATM  126 O126 LIG A   1     -27.640 -12.958  26.305  1.00  0.00    -0.273  O
HETATM  127 C127 LIG A   1     -26.492 -14.294  23.760  1.00  0.00    -0.015  C
HETATM  128 C128 LIG A   1     -26.225 -12.792  23.542  1.00  0.00    -0.005  C
HETATM  129 S129 LIG A   1     -25.273 -12.508  22.004  1.00  0.00    -0.165  S
HETATM  130 C130 LIG A   1     -23.659 -13.033  22.665  1.00  0.00    -0.018  C
HETATM  131 N131 LIG A   1     -27.390 -15.157  27.046  1.00  0.00    -0.341  N
HETATM  132 C132 LIG A   1     -27.618 -14.843  28.463  1.00  0.00     0.127  C
HETATM  133 C133 LIG A   1     -26.691 -15.630  29.350  1.00  0.00     0.326  C
HETATM  134 O134 LIG A   1     -26.198 -15.094  30.376  1.00  0.00    -0.250  O
HETATM  135 C135 LIG A   1     -29.097 -15.077  28.832  1.00  0.00    -0.020  C
HETATM  136 C136 LIG A   1     -29.499 -16.563  28.819  1.00  0.00    -0.033  C
HETATM  137 C137 LIG A   1     -31.015 -16.735  28.928  1.00  0.00     0.018  C
HETATM  138 N138 LIG A   1     -31.370 -18.153  28.981  1.00  0.00    -0.357  N
HETATM  139 C139 LIG A   1     -32.721 -18.607  28.832  1.00  0.00     0.185  C
HETATM  140 N140 LIG A   1     -33.685 -17.754  28.685  1.00  0.00    -0.270  N
HETATM  141 N141 LIG A   1     -32.999 -20.010  28.834  1.00  0.00    -0.370  N
HETATM  142 O142 LIG A   1     -26.422 -16.968  29.082  1.00  0.00    -0.480  O
ENDROOT
TORSDOF 0
                                                                                                                                                 
ENDMDL
