MODEL 1
REMARK VINA RESULT:    -3.766      0.000      0.000
REMARK INTER + INTRA:          -3.766
REMARK INTER:                  -3.766
REMARK INTRA:                   0.000
REMARK UNBOUND:                 0.000
ROOT
HETATM    1 N1   LIG A   1     -27.581 -11.086  15.372  1.00  0.00    -0.320  N
HETATM    2 C2   LIG A   1     -26.976 -11.839  16.476  1.00  0.00     0.088  C
HETATM    3 C3   LIG A   1     -27.418 -13.282  16.468  1.00  0.00     0.237  C
HETATM    4 O4   LIG A   1     -28.581 -13.587  16.081  1.00  0.00    -0.273  O
HETATM    5 C5   LIG A   1     -27.318 -11.191  17.827  1.00  0.00    -0.004  C
HETATM    6 C6   LIG A   1     -26.757  -9.798  17.928  1.00  0.00    -0.046  C
HETATM    7 C7   LIG A   1     -25.447  -9.596  18.394  1.00  0.00    -0.059  C
HETATM    8 C8   LIG A   1     -27.517  -8.692  17.508  1.00  0.00    -0.059  C
HETATM    9 C9   LIG A   1     -24.912  -8.304  18.455  1.00  0.00    -0.062  C
HETATM   10 C10  LIG A   1     -26.977  -7.403  17.568  1.00  0.00    -0.062  C
HETATM   11 C11  LIG A   1     -25.676  -7.209  18.041  1.00  0.00    -0.062  C
HETATM   12 N12  LIG A   1     -26.534 -14.301  16.957  1.00  0.00    -0.343  N
HETATM   13 C13  LIG A   1     -26.873 -15.726  16.889  1.00  0.00     0.110  C
HETATM   14 C14  LIG A   1     -27.784 -16.068  18.041  1.00  0.00     0.243  C
HETATM   15 O15  LIG A   1     -27.508 -15.659  19.200  1.00  0.00    -0.273  O
HETATM   16 C16  LIG A   1     -25.594 -16.606  16.896  1.00  0.00    -0.018  C
HETATM   17 C17  LIG A   1     -25.940 -18.102  16.800  1.00  0.00    -0.060  C
HETATM   18 C18  LIG A   1     -24.660 -16.230  15.732  1.00  0.00    -0.060  C
HETATM   19 N19  LIG A   1     -28.938 -16.893  17.820  1.00  0.00    -0.342  N
HETATM   20 C20  LIG A   1     -30.040 -16.987  18.787  1.00  0.00     0.116  C
HETATM   21 C21  LIG A   1     -29.639 -17.813  19.986  1.00  0.00     0.243  C
HETATM   22 O22  LIG A   1     -28.572 -18.484  19.966  1.00  0.00    -0.273  O
HETATM   23 C23  LIG A   1     -31.290 -17.594  18.121  1.00  0.00     0.056  C
HETATM   24 C24  LIG A   1     -31.810 -16.700  17.031  1.00  0.00     0.220  C
HETATM   25 O25  LIG A   1     -32.443 -15.653  17.331  1.00  0.00    -0.275  O
HETATM   26 N26  LIG A   1     -31.565 -17.009  15.659  1.00  0.00    -0.370  N
HETATM   27 N27  LIG A   1     -30.486 -17.840  21.146  1.00  0.00    -0.343  N
HETATM   28 C28  LIG A   1     -30.070 -18.468  22.407  1.00  0.00     0.108  C
HETATM   29 C29  LIG A   1     -29.922 -19.961  22.216  1.00  0.00     0.243  C
HETATM   30 O30  LIG A   1     -30.792 -20.572  21.539  1.00  0.00    -0.273  O
HETATM   31 C31  LIG A   1     -31.101 -18.192  23.523  1.00  0.00    -0.024  C
HETATM   32 C32  LIG A   1     -31.062 -16.730  23.983  1.00  0.00    -0.050  C
HETATM   33 C33  LIG A   1     -32.166 -16.417  24.998  1.00  0.00    -0.041  C
HETATM   34 C34  LIG A   1     -32.110 -14.945  25.423  1.00  0.00    -0.008  C
HETATM   35 N35  LIG A   1     -33.276 -14.606  26.234  1.00  0.00    -0.330  N
HETATM   36 N36  LIG A   1     -28.838 -20.717  22.788  1.00  0.00    -0.343  N
HETATM   37 C37  LIG A   1     -27.903 -20.234  23.810  1.00  0.00     0.108  C
HETATM   38 C38  LIG A   1     -26.518 -20.153  23.224  1.00  0.00     0.243  C
HETATM   39 O39  LIG A   1     -25.848 -21.203  23.030  1.00  0.00    -0.273  O
HETATM   40 C40  LIG A   1     -27.915 -21.171  25.035  1.00  0.00    -0.021  C
HETATM   41 C41  LIG A   1     -29.229 -21.086  25.847  1.00  0.00    -0.045  C
HETATM   42 C42  LIG A   1     -29.388 -22.337  26.720  1.00  0.00    -0.063  C
HETATM   43 C43  LIG A   1     -29.270 -19.829  26.730  1.00  0.00    -0.063  C
HETATM   44 N44  LIG A   1     -25.955 -18.881  22.891  1.00  0.00    -0.342  N
HETATM   45 C45  LIG A   1     -24.643 -18.493  23.419  1.00  0.00     0.116  C
HETATM   46 C46  LIG A   1     -24.801 -17.955  24.815  1.00  0.00     0.243  C
HETATM   47 O47  LIG A   1     -25.928 -17.545  25.202  1.00  0.00    -0.273  O
HETATM   48 C48  LIG A   1     -23.988 -17.439  22.512  1.00  0.00     0.056  C
HETATM   49 C49  LIG A   1     -23.615 -18.034  21.187  1.00  0.00     0.220  C
HETATM   50 O50  LIG A   1     -22.465 -18.523  21.023  1.00  0.00    -0.275  O
HETATM   51 N51  LIG A   1     -24.570 -18.107  20.131  1.00  0.00    -0.370  N
HETATM   52 N52  LIG A   1     -23.671 -17.894  25.700  1.00  0.00    -0.343  N
HETATM   53 C53  LIG A   1     -23.790 -17.445  27.091  1.00  0.00     0.108  C
HETATM   54 C54  LIG A   1     -22.732 -16.419  27.400  1.00  0.00     0.243  C
HETATM   55 O55  LIG A   1     -21.520 -16.674  27.160  1.00  0.00    -0.273  O
HETATM   56 C56  LIG A   1     -23.689 -18.639  28.056  1.00  0.00    -0.022  C
HETATM   57 C57  LIG A   1     -24.936 -19.537  27.987  1.00  0.00    -0.033  C
HETATM   58 C58  LIG A   1     -24.905 -20.605  29.088  1.00  0.00     0.018  C
HETATM   59 N59  LIG A   1     -26.198 -21.283  29.192  1.00  0.00    -0.357  N
HETATM   60 C60  LIG A   1     -27.320 -20.713  29.885  1.00  0.00     0.185  C
HETATM   61 N61  LIG A   1     -27.269 -19.494  30.325  1.00  0.00    -0.270  N
HETATM   62 N62  LIG A   1     -28.498 -21.495  30.091  1.00  0.00    -0.370  N
HETATM   63 N63  LIG A   1     -23.107 -15.173  28.008  1.00  0.00    -0.342  N
HETATM   64 C64  LIG A   1     -22.166 -14.079  28.282  1.00  0.00     0.110  C
HETATM   65 C65  LIG A   1     -22.433 -13.480  29.652  1.00  0.00     0.243  C
HETATM   66 O66  LIG A   1     -23.294 -14.009  30.406  1.00  0.00    -0.273  O
HETATM   67 C67  LIG A   1     -22.204 -13.022  27.131  1.00  0.00    -0.015  C
HETATM   68 C68  LIG A   1     -21.411 -13.536  25.920  1.00  0.00    -0.060  C
HETATM   69 C69  LIG A   1     -23.628 -12.617  26.666  1.00  0.00    -0.051  C
HETATM   70 C70  LIG A   1     -24.435 -11.874  27.726  1.00  0.00    -0.065  C
HETATM   71 N71  LIG A   1     -21.662 -12.365  30.130  1.00  0.00    -0.342  N
HETATM   72 C72  LIG A   1     -21.869 -11.793  31.473  1.00  0.00     0.110  C
HETATM   73 C73  LIG A   1     -23.285 -11.275  31.626  1.00  0.00     0.246  C
HETATM   74 O74  LIG A   1     -23.857 -10.744  30.637  1.00  0.00    -0.272  O
HETATM   75 C75  LIG A   1     -20.817 -10.696  31.818  1.00  0.00    -0.015  C
HETATM   76 C76  LIG A   1     -19.414 -11.315  31.953  1.00  0.00    -0.060  C
HETATM   77 C77  LIG A   1     -20.823  -9.513  30.813  1.00  0.00    -0.051  C
HETATM   78 C78  LIG A   1     -20.018  -8.312  31.309  1.00  0.00    -0.065  C
HETATM   79 N79  LIG A   1     -23.999 -11.396  32.870  1.00  0.00    -0.329  N
HETATM   80 C80  LIG A   1     -25.386 -11.838  32.948  1.00  0.00     0.111  C
HETATM   81 C81  LIG A   1     -26.320 -10.930  32.188  1.00  0.00     0.243  C
HETATM   82 O82  LIG A   1     -26.238  -9.680  32.338  1.00  0.00    -0.273  O
HETATM   83 C83  LIG A   1     -25.728 -11.859  34.439  1.00  0.00    -0.022  C
HETATM   84 C84  LIG A   1     -24.389 -11.860  35.169  1.00  0.00    -0.033  C
HETATM   85 C85  LIG A   1     -23.372 -11.305  34.181  1.00  0.00     0.021  C
HETATM   86 N86  LIG A   1     -27.327 -11.498  31.334  1.00  0.00    -0.342  N
HETATM   87 C87  LIG A   1     -28.462 -10.762  30.768  1.00  0.00     0.110  C
HETATM   88 C88  LIG A   1     -27.979  -9.724  29.785  1.00  0.00     0.243  C
HETATM   89 O89  LIG A   1     -27.699  -8.556  30.170  1.00  0.00    -0.273  O
HETATM   90 C90  LIG A   1     -29.386 -10.176  31.873  1.00  0.00    -0.018  C
HETATM   91 C91  LIG A   1     -29.802 -11.261  32.879  1.00  0.00    -0.060  C
HETATM   92 C92  LIG A   1     -30.648  -9.545  31.259  1.00  0.00    -0.060  C
HETATM   93 N93  LIG A   1     -27.856 -10.065  28.400  1.00  0.00    -0.343  N
HETATM   94 C94  LIG A   1     -28.341  -9.155  27.360  1.00  0.00     0.108  C
HETATM   95 C95  LIG A   1     -29.850  -9.135  27.375  1.00  0.00     0.243  C
HETATM   96 O96  LIG A   1     -30.456  -8.035  27.262  1.00  0.00    -0.273  O
HETATM   97 C97  LIG A   1     -27.818  -9.595  25.978  1.00  0.00    -0.024  C
HETATM   98 C98  LIG A   1     -28.035  -8.520  24.906  1.00  0.00    -0.050  C
HETATM   99 C99  LIG A   1     -27.478  -8.973  23.551  1.00  0.00    -0.041  C
HETATM  100 C100 LIG A   1     -27.720  -7.911  22.477  1.00  0.00    -0.008  C
HETATM  101 N101 LIG A   1     -27.096  -8.311  21.221  1.00  0.00    -0.330  N
HETATM  102 N102 LIG A   1     -30.592 -10.360  27.487  1.00  0.00    -0.345  N
HETATM  103 C103 LIG A   1     -32.050 -10.402  27.424  1.00  0.00     0.097  C
HETATM  104 C104 LIG A   1     -32.513 -10.183  26.016  1.00  0.00     0.240  C
HETATM  105 O105 LIG A   1     -33.419  -9.339  25.783  1.00  0.00    -0.273  O
HETATM  106 N106 LIG A   1     -31.948 -10.957  24.948  1.00  0.00    -0.342  N
HETATM  107 C107 LIG A   1     -32.288 -10.723  23.541  1.00  0.00     0.112  C
HETATM  108 C108 LIG A   1     -31.881 -11.916  22.710  1.00  0.00     0.243  C
HETATM  109 O109 LIG A   1     -32.766 -12.550  22.071  1.00  0.00    -0.273  O
HETATM  110 C110 LIG A   1     -31.616  -9.427  23.043  1.00  0.00     0.002  C
HETATM  111 C111 LIG A   1     -31.924  -9.148  21.593  1.00  0.00    -0.045  C
HETATM  112 C112 LIG A   1     -33.185  -8.656  21.219  1.00  0.00    -0.059  C
HETATM  113 C113 LIG A   1     -30.968  -9.417  20.601  1.00  0.00    -0.059  C
HETATM  114 C114 LIG A   1     -33.480  -8.432  19.870  1.00  0.00    -0.062  C
HETATM  115 C115 LIG A   1     -31.268  -9.196  19.254  1.00  0.00    -0.062  C
HETATM  116 C116 LIG A   1     -32.524  -8.703  18.888  1.00  0.00    -0.062  C
HETATM  117 N117 LIG A   1     -30.506 -12.325  22.644  1.00  0.00    -0.340  N
HETATM  118 C118 LIG A   1     -30.058 -13.482  21.863  1.00  0.00     0.131  C
HETATM  119 C119 LIG A   1     -29.090 -14.345  22.644  1.00  0.00     0.245  C
HETATM  120 O120 LIG A   1     -28.607 -15.368  22.084  1.00  0.00    -0.273  O
HETATM  121 C121 LIG A   1     -29.425 -12.997  20.550  1.00  0.00     0.072  C
HETATM  122 O122 LIG A   1     -28.171 -12.412  20.778  1.00  0.00    -0.394  O
HETATM  123 N123 LIG A   1     -28.734 -14.044  24.006  1.00  0.00    -0.342  N
HETATM  124 C124 LIG A   1     -27.550 -14.619  24.664  1.00  0.00     0.109  C
HETATM  125 C125 LIG A   1     -27.424 -14.094  26.075  1.00  0.00     0.243  C
HETATM  126 O126 LIG A   1     -27.496 -12.854  26.276  1.00  0.00    -0.273  O
HETATM  127 C127 LIG A   1     -26.259 -14.342  23.861  1.00  0.00    -0.015  C
HETATM  128 C128 LIG A   1     -26.022 -12.853  23.539  1.00  0.00    -0.005  C
HETATM  129 S129 LIG A   1     -25.041 -12.658  22.006  1.00  0.00    -0.165  S
HETATM  130 C130 LIG A   1     -23.432 -13.094  22.737  1.00  0.00    -0.018  C
HETATM  131 N131 LIG A   1     -27.212 -14.986  27.181  1.00  0.00    -0.341  N
HETATM  132 C132 LIG A   1     -27.480 -14.575  28.566  1.00  0.00     0.127  C
HETATM  133 C133 LIG A   1     -26.557 -15.273  29.527  1.00  0.00     0.326  C
HETATM  134 O134 LIG A   1     -26.099 -14.652  30.522  1.00  0.00    -0.250  O
HETATM  135 C135 LIG A   1     -28.962 -14.819  28.919  1.00  0.00    -0.020  C
HETATM  136 C136 LIG A   1     -29.330 -16.311  29.007  1.00  0.00    -0.033  C
HETATM  137 C137 LIG A   1     -30.843 -16.512  29.096  1.00  0.00     0.018  C
HETATM  138 N138 LIG A   1     -31.166 -17.931  29.244  1.00  0.00    -0.357  N
HETATM  139 C139 LIG A   1     -32.503 -18.428  29.100  1.00  0.00     0.185  C
HETATM  140 N140 LIG A   1     -33.483 -17.611  28.870  1.00  0.00    -0.270  N
HETATM  141 N141 LIG A   1     -32.749 -19.832  29.199  1.00  0.00    -0.370  N
HETATM  142 O142 LIG A   1     -26.251 -16.620  29.364  1.00  0.00    -0.480  O
ENDROOT
TORSDOF 0
                                                                                                                                                 
ENDMDL
MODEL 2
REMARK VINA RESULT:    -2.568      0.540      0.540
REMARK INTER + INTRA:          -2.568
REMARK INTER:                  -2.568
REMARK INTRA:                   0.000
REMARK UNBOUND:                 0.000
ROOT
HETATM    1 N1   LIG A   1     -27.860 -10.422  15.526  1.00  0.00    -0.320  N
HETATM    2 C2   LIG A   1     -27.250 -11.260  16.564  1.00  0.00     0.088  C
HETATM    3 C3   LIG A   1     -27.707 -12.694  16.453  1.00  0.00     0.237  C
HETATM    4 O4   LIG A   1     -28.877 -12.959  16.057  1.00  0.00    -0.273  O
HETATM    5 C5   LIG A   1     -27.571 -10.712  17.963  1.00  0.00    -0.004  C
HETATM    6 C6   LIG A   1     -26.996  -9.335  18.161  1.00  0.00    -0.046  C
HETATM    7 C7   LIG A   1     -25.679  -9.181  18.626  1.00  0.00    -0.059  C
HETATM    8 C8   LIG A   1     -27.749  -8.194  17.834  1.00  0.00    -0.059  C
HETATM    9 C9   LIG A   1     -25.130  -7.903  18.777  1.00  0.00    -0.062  C
HETATM   10 C10  LIG A   1     -27.195  -6.919  17.984  1.00  0.00    -0.062  C
HETATM   11 C11  LIG A   1     -25.887  -6.773  18.455  1.00  0.00    -0.062  C
HETATM   12 N12  LIG A   1     -26.828 -13.755  16.854  1.00  0.00    -0.343  N
HETATM   13 C13  LIG A   1     -27.183 -15.168  16.683  1.00  0.00     0.110  C
HETATM   14 C14  LIG A   1     -28.085 -15.587  17.817  1.00  0.00     0.243  C
HETATM   15 O15  LIG A   1     -27.793 -15.268  19.001  1.00  0.00    -0.273  O
HETATM   16 C16  LIG A   1     -25.913 -16.058  16.610  1.00  0.00    -0.018  C
HETATM   17 C17  LIG A   1     -26.275 -17.540  16.407  1.00  0.00    -0.060  C
HETATM   18 C18  LIG A   1     -24.987 -15.605  15.467  1.00  0.00    -0.060  C
HETATM   19 N19  LIG A   1     -29.249 -16.382  17.548  1.00  0.00    -0.342  N
HETATM   20 C20  LIG A   1     -30.342 -16.538  18.518  1.00  0.00     0.116  C
HETATM   21 C21  LIG A   1     -29.937 -17.455  19.647  1.00  0.00     0.243  C
HETATM   22 O22  LIG A   1     -28.877 -18.132  19.565  1.00  0.00    -0.273  O
HETATM   23 C23  LIG A   1     -31.605 -17.081  17.822  1.00  0.00     0.056  C
HETATM   24 C24  LIG A   1     -32.127 -16.104  16.808  1.00  0.00     0.220  C
HETATM   25 O25  LIG A   1     -32.747 -15.076  17.193  1.00  0.00    -0.275  O
HETATM   26 N26  LIG A   1     -31.900 -16.312  15.414  1.00  0.00    -0.370  N
HETATM   27 N27  LIG A   1     -30.772 -17.560  20.812  1.00  0.00    -0.343  N
HETATM   28 C28  LIG A   1     -30.349 -18.285  22.017  1.00  0.00     0.108  C
HETATM   29 C29  LIG A   1     -30.218 -19.761  21.714  1.00  0.00     0.243  C
HETATM   30 O30  LIG A   1     -31.101 -20.312  21.002  1.00  0.00    -0.273  O
HETATM   31 C31  LIG A   1     -31.365 -18.083  23.162  1.00  0.00    -0.024  C
HETATM   32 C32  LIG A   1     -31.307 -16.660  23.730  1.00  0.00    -0.050  C
HETATM   33 C33  LIG A   1     -32.397 -16.414  24.777  1.00  0.00    -0.041  C
HETATM   34 C34  LIG A   1     -32.322 -14.978  25.311  1.00  0.00    -0.008  C
HETATM   35 N35  LIG A   1     -33.475 -14.690  26.158  1.00  0.00    -0.330  N
HETATM   36 N36  LIG A   1     -29.136 -20.568  22.215  1.00  0.00    -0.343  N
HETATM   37 C37  LIG A   1     -28.185 -20.171  23.260  1.00  0.00     0.108  C
HETATM   38 C38  LIG A   1     -26.806 -20.060  22.667  1.00  0.00     0.243  C
HETATM   39 O39  LIG A   1     -26.149 -21.099  22.387  1.00  0.00    -0.273  O
HETATM   40 C40  LIG A   1     -28.194 -21.197  24.412  1.00  0.00    -0.021  C
HETATM   41 C41  LIG A   1     -29.499 -21.161  25.242  1.00  0.00    -0.045  C
HETATM   42 C42  LIG A   1     -29.661 -22.472  26.021  1.00  0.00    -0.063  C
HETATM   43 C43  LIG A   1     -29.518 -19.973  26.217  1.00  0.00    -0.063  C
HETATM   44 N44  LIG A   1     -26.234 -18.771  22.423  1.00  0.00    -0.342  N
HETATM   45 C45  LIG A   1     -24.912 -18.436  22.963  1.00  0.00     0.116  C
HETATM   46 C46  LIG A   1     -25.050 -18.002  24.398  1.00  0.00     0.243  C
HETATM   47 O47  LIG A   1     -26.169 -17.612  24.827  1.00  0.00    -0.273  O
HETATM   48 C48  LIG A   1     -24.256 -17.324  22.131  1.00  0.00     0.056  C
HETATM   49 C49  LIG A   1     -23.903 -17.821  20.761  1.00  0.00     0.220  C
HETATM   50 O50  LIG A   1     -22.760 -18.307  20.547  1.00  0.00    -0.275  O
HETATM   51 N51  LIG A   1     -24.870 -17.806  19.713  1.00  0.00    -0.370  N
HETATM   52 N52  LIG A   1     -23.910 -18.018  25.272  1.00  0.00    -0.343  N
HETATM   53 C53  LIG A   1     -24.010 -17.674  26.694  1.00  0.00     0.108  C
HETATM   54 C54  LIG A   1     -22.939 -16.683  27.066  1.00  0.00     0.243  C
HETATM   55 O55  LIG A   1     -21.732 -16.931  26.795  1.00  0.00    -0.273  O
HETATM   56 C56  LIG A   1     -23.911 -18.937  27.566  1.00  0.00    -0.022  C
HETATM   57 C57  LIG A   1     -25.168 -19.816  27.444  1.00  0.00    -0.033  C
HETATM   58 C58  LIG A   1     -25.137 -20.963  28.462  1.00  0.00     0.018  C
HETATM   59 N59  LIG A   1     -26.435 -21.635  28.529  1.00  0.00    -0.357  N
HETATM   60 C60  LIG A   1     -27.544 -21.108  29.275  1.00  0.00     0.185  C
HETATM   61 N61  LIG A   1     -27.476 -19.927  29.804  1.00  0.00    -0.270  N
HETATM   62 N62  LIG A   1     -28.728 -21.893  29.436  1.00  0.00    -0.370  N
HETATM   63 N63  LIG A   1     -23.295 -15.483  27.770  1.00  0.00    -0.342  N
HETATM   64 C64  LIG A   1     -22.340 -14.421  28.114  1.00  0.00     0.110  C
HETATM   65 C65  LIG A   1     -22.586 -13.925  29.528  1.00  0.00     0.243  C
HETATM   66 O66  LIG A   1     -23.445 -14.500  30.250  1.00  0.00    -0.273  O
HETATM   67 C67  LIG A   1     -22.379 -13.281  27.046  1.00  0.00    -0.015  C
HETATM   68 C68  LIG A   1     -21.604 -13.711  25.791  1.00  0.00    -0.060  C
HETATM   69 C69  LIG A   1     -23.803 -12.829  26.629  1.00  0.00    -0.051  C
HETATM   70 C70  LIG A   1     -24.592 -12.160  27.750  1.00  0.00    -0.065  C
HETATM   71 N71  LIG A   1     -21.799 -12.855  30.080  1.00  0.00    -0.342  N
HETATM   72 C72  LIG A   1     -21.986 -12.383  31.463  1.00  0.00     0.110  C
HETATM   73 C73  LIG A   1     -23.395 -11.865  31.670  1.00  0.00     0.246  C
HETATM   74 O74  LIG A   1     -23.972 -11.256  30.731  1.00  0.00    -0.272  O
HETATM   75 C75  LIG A   1     -20.919 -11.325  31.877  1.00  0.00    -0.015  C
HETATM   76 C76  LIG A   1     -19.521 -11.966  31.950  1.00  0.00    -0.060  C
HETATM   77 C77  LIG A   1     -20.924 -10.071  30.964  1.00  0.00    -0.051  C
HETATM   78 C78  LIG A   1     -20.102  -8.917  31.539  1.00  0.00    -0.065  C
HETATM   79 N79  LIG A   1     -24.097 -12.072  32.910  1.00  0.00    -0.329  N
HETATM   80 C80  LIG A   1     -25.488 -12.505  32.971  1.00  0.00     0.111  C
HETATM   81 C81  LIG A   1     -26.420 -11.534  32.291  1.00  0.00     0.243  C
HETATM   82 O82  LIG A   1     -26.324 -10.300  32.533  1.00  0.00    -0.273  O
HETATM   83 C83  LIG A   1     -25.814 -12.635  34.459  1.00  0.00    -0.022  C
HETATM   84 C84  LIG A   1     -24.467 -12.703  35.172  1.00  0.00    -0.033  C
HETATM   85 C85  LIG A   1     -23.455 -12.085  34.217  1.00  0.00     0.021  C
HETATM   86 N86  LIG A   1     -27.442 -12.027  31.409  1.00  0.00    -0.342  N
HETATM   87 C87  LIG A   1     -28.575 -11.241  30.911  1.00  0.00     0.110  C
HETATM   88 C88  LIG A   1     -28.092 -10.137  30.003  1.00  0.00     0.243  C
HETATM   89 O89  LIG A   1     -27.796  -9.004  30.471  1.00  0.00    -0.273  O
HETATM   90 C90  LIG A   1     -29.481 -10.731  32.068  1.00  0.00    -0.018  C
HETATM   91 C91  LIG A   1     -29.898 -11.884  32.995  1.00  0.00    -0.060  C
HETATM   92 C92  LIG A   1     -30.743 -10.043  31.517  1.00  0.00    -0.060  C
HETATM   93 N93  LIG A   1     -27.987 -10.375  28.596  1.00  0.00    -0.343  N
HETATM   94 C94  LIG A   1     -28.474  -9.385  27.631  1.00  0.00     0.108  C
HETATM   95 C95  LIG A   1     -29.982  -9.352  27.666  1.00  0.00     0.243  C
HETATM   96 O96  LIG A   1     -30.578  -8.241  27.642  1.00  0.00    -0.273  O
HETATM   97 C97  LIG A   1     -27.970  -9.726  26.215  1.00  0.00    -0.024  C
HETATM   98 C98  LIG A   1     -28.187  -8.571  25.229  1.00  0.00    -0.050  C
HETATM   99 C99  LIG A   1     -27.649  -8.927  23.838  1.00  0.00    -0.041  C
HETATM  100 C100 LIG A   1     -27.892  -7.785  22.849  1.00  0.00    -0.008  C
HETATM  101 N101 LIG A   1     -27.285  -8.096  21.560  1.00  0.00    -0.330  N
HETATM  102 N102 LIG A   1     -30.736 -10.575  27.694  1.00  0.00    -0.345  N
HETATM  103 C103 LIG A   1     -32.194 -10.598  27.645  1.00  0.00     0.097  C
HETATM  104 C104 LIG A   1     -32.670 -10.271  26.262  1.00  0.00     0.240  C
HETATM  105 O105 LIG A   1     -33.570  -9.403  26.103  1.00  0.00    -0.273  O
HETATM  106 N106 LIG A   1     -32.124 -10.968  25.133  1.00  0.00    -0.342  N
HETATM  107 C107 LIG A   1     -32.476 -10.626  23.751  1.00  0.00     0.112  C
HETATM  108 C108 LIG A   1     -32.091 -11.757  22.829  1.00  0.00     0.243  C
HETATM  109 O109 LIG A   1     -32.988 -12.334  22.154  1.00  0.00    -0.273  O
HETATM  110 C110 LIG A   1     -31.797  -9.303  23.344  1.00  0.00     0.002  C
HETATM  111 C111 LIG A   1     -32.117  -8.913  21.923  1.00  0.00    -0.045  C
HETATM  112 C112 LIG A   1     -33.377  -8.383  21.600  1.00  0.00    -0.059  C
HETATM  113 C113 LIG A   1     -31.174  -9.117  20.902  1.00  0.00    -0.059  C
HETATM  114 C114 LIG A   1     -33.684  -8.056  20.275  1.00  0.00    -0.062  C
HETATM  115 C115 LIG A   1     -31.486  -8.793  19.579  1.00  0.00    -0.062  C
HETATM  116 C116 LIG A   1     -32.740  -8.261  19.265  1.00  0.00    -0.062  C
HETATM  117 N117 LIG A   1     -30.720 -12.173  22.717  1.00  0.00    -0.340  N
HETATM  118 C118 LIG A   1     -30.292 -13.273  21.846  1.00  0.00     0.131  C
HETATM  119 C119 LIG A   1     -29.324 -14.201  22.550  1.00  0.00     0.245  C
HETATM  120 O120 LIG A   1     -28.858 -15.183  21.910  1.00  0.00    -0.273  O
HETATM  121 C121 LIG A   1     -29.668 -12.697  20.566  1.00  0.00     0.072  C
HETATM  122 O122 LIG A   1     -28.406 -12.142  20.824  1.00  0.00    -0.394  O
HETATM  123 N123 LIG A   1     -28.951 -14.006  23.927  1.00  0.00    -0.342  N
HETATM  124 C124 LIG A   1     -27.767 -14.640  24.527  1.00  0.00     0.109  C
HETATM  125 C125 LIG A   1     -27.621 -14.223  25.972  1.00  0.00     0.243  C
HETATM  126 O126 LIG A   1     -27.678 -13.000  26.266  1.00  0.00    -0.273  O
HETATM  127 C127 LIG A   1     -26.481 -14.315  23.732  1.00  0.00    -0.015  C
HETATM  128 C128 LIG A   1     -26.232 -12.808  23.520  1.00  0.00    -0.005  C
HETATM  129 S129 LIG A   1     -25.266 -12.508  21.994  1.00  0.00    -0.165  S
HETATM  130 C130 LIG A   1     -23.653 -13.013  22.673  1.00  0.00    -0.018  C
HETATM  131 N131 LIG A   1     -27.406 -15.197  27.005  1.00  0.00    -0.341  N
HETATM  132 C132 LIG A   1     -27.656 -14.888  28.420  1.00  0.00     0.127  C
HETATM  133 C133 LIG A   1     -26.729 -15.664  29.316  1.00  0.00     0.326  C
HETATM  134 O134 LIG A   1     -26.255 -15.124  30.349  1.00  0.00    -0.250  O
HETATM  135 C135 LIG A   1     -29.135 -15.143  28.771  1.00  0.00    -0.020  C
HETATM  136 C136 LIG A   1     -29.518 -16.634  28.751  1.00  0.00    -0.033  C
HETATM  137 C137 LIG A   1     -31.032 -16.827  28.842  1.00  0.00     0.018  C
HETATM  138 N138 LIG A   1     -31.368 -18.250  28.887  1.00  0.00    -0.357  N
HETATM  139 C139 LIG A   1     -32.711 -18.722  28.721  1.00  0.00     0.185  C
HETATM  140 N140 LIG A   1     -33.685 -17.882  28.564  1.00  0.00    -0.270  N
HETATM  141 N141 LIG A   1     -32.970 -20.128  28.718  1.00  0.00    -0.370  N
HETATM  142 O142 LIG A   1     -26.439 -16.998  29.050  1.00  0.00    -0.480  O
ENDROOT
TORSDOF 0
                                                                                                                                                 
ENDMDL
