MODEL 1
REMARK VINA RESULT:    -0.103      0.000      0.000
REMARK INTER + INTRA:          -0.103
REMARK INTER:                  -0.103
REMARK INTRA:                   0.000
REMARK UNBOUND:                 0.000
ROOT
HETATM    1 N1   LIG A   1     -25.576 -21.914  27.254  1.00  0.00    -0.320  N
HETATM    2 C2   LIG A   1     -25.247 -20.516  26.955  1.00  0.00     0.088  C
HETATM    3 C3   LIG A   1     -26.048 -19.566  27.812  1.00  0.00     0.237  C
HETATM    4 O4   LIG A   1     -27.227 -19.860  28.154  1.00  0.00    -0.273  O
HETATM    5 C5   LIG A   1     -25.481 -20.209  25.468  1.00  0.00    -0.004  C
HETATM    6 C6   LIG A   1     -24.584 -21.036  24.586  1.00  0.00    -0.046  C
HETATM    7 C7   LIG A   1     -23.293 -20.581  24.267  1.00  0.00    -0.059  C
HETATM    8 C8   LIG A   1     -25.007 -22.292  24.118  1.00  0.00    -0.059  C
HETATM    9 C9   LIG A   1     -22.445 -21.365  23.477  1.00  0.00    -0.062  C
HETATM   10 C10  LIG A   1     -24.155 -23.073  23.331  1.00  0.00    -0.062  C
HETATM   11 C11  LIG A   1     -22.875 -22.611  23.010  1.00  0.00    -0.062  C
HETATM   12 N12  LIG A   1     -25.486 -18.300  28.188  1.00  0.00    -0.343  N
HETATM   13 C13  LIG A   1     -26.180 -17.378  29.093  1.00  0.00     0.110  C
HETATM   14 C14  LIG A   1     -27.209 -16.604  28.308  1.00  0.00     0.243  C
HETATM   15 O15  LIG A   1     -26.898 -16.100  27.195  1.00  0.00    -0.273  O
HETATM   16 C16  LIG A   1     -25.175 -16.430  29.802  1.00  0.00    -0.018  C
HETATM   17 C17  LIG A   1     -25.892 -15.473  30.771  1.00  0.00    -0.060  C
HETATM   18 C18  LIG A   1     -24.115 -17.231  30.577  1.00  0.00    -0.060  C
HETATM   19 N19  LIG A   1     -28.523 -16.408  28.850  1.00  0.00    -0.342  N
HETATM   20 C20  LIG A   1     -29.663 -15.979  28.027  1.00  0.00     0.116  C
HETATM   21 C21  LIG A   1     -29.555 -14.515  27.675  1.00  0.00     0.243  C
HETATM   22 O22  LIG A   1     -28.699 -13.786  28.247  1.00  0.00    -0.273  O
HETATM   23 C23  LIG A   1     -30.990 -16.251  28.761  1.00  0.00     0.056  C
HETATM   24 C24  LIG A   1     -31.200 -17.723  28.971  1.00  0.00     0.220  C
HETATM   25 O25  LIG A   1     -31.555 -18.447  28.003  1.00  0.00    -0.275  O
HETATM   26 N26  LIG A   1     -30.970 -18.315  30.250  1.00  0.00    -0.370  N
HETATM   27 N27  LIG A   1     -30.441 -13.951  26.694  1.00  0.00    -0.343  N
HETATM   28 C28  LIG A   1     -30.270 -12.589  26.174  1.00  0.00     0.108  C
HETATM   29 C29  LIG A   1     -30.505 -11.581  27.276  1.00  0.00     0.243  C
HETATM   30 O30  LIG A   1     -31.466 -11.768  28.070  1.00  0.00    -0.273  O
HETATM   31 C31  LIG A   1     -31.252 -12.319  25.013  1.00  0.00    -0.024  C
HETATM   32 C32  LIG A   1     -30.860 -13.089  23.746  1.00  0.00    -0.050  C
HETATM   33 C33  LIG A   1     -31.898 -12.928  22.631  1.00  0.00    -0.041  C
HETATM   34 C34  LIG A   1     -31.484 -13.724  21.387  1.00  0.00    -0.008  C
HETATM   35 N35  LIG A   1     -32.564 -13.726  20.404  1.00  0.00    -0.330  N
HETATM   36 N36  LIG A   1     -29.687 -10.408  27.450  1.00  0.00    -0.343  N
HETATM   37 C37  LIG A   1     -28.715  -9.892  26.479  1.00  0.00     0.108  C
HETATM   38 C38  LIG A   1     -27.327 -10.002  27.053  1.00  0.00     0.243  C
HETATM   39 O39  LIG A   1     -26.943  -9.200  27.947  1.00  0.00    -0.273  O
HETATM   40 C40  LIG A   1     -29.036  -8.426  26.126  1.00  0.00    -0.021  C
HETATM   41 C41  LIG A   1     -30.324  -8.276  25.283  1.00  0.00    -0.045  C
HETATM   42 C42  LIG A   1     -30.849  -6.838  25.378  1.00  0.00    -0.063  C
HETATM   43 C43  LIG A   1     -30.085  -8.645  23.810  1.00  0.00    -0.063  C
HETATM   44 N44  LIG A   1     -26.436 -11.018  26.581  1.00  0.00    -0.342  N
HETATM   45 C45  LIG A   1     -25.098 -10.660  26.098  1.00  0.00     0.116  C
HETATM   46 C46  LIG A   1     -25.186 -10.199  24.668  1.00  0.00     0.243  C
HETATM   47 O47  LIG A   1     -26.187 -10.516  23.971  1.00  0.00    -0.273  O
HETATM   48 C48  LIG A   1     -24.144 -11.858  26.215  1.00  0.00     0.056  C
HETATM   49 C49  LIG A   1     -23.868 -12.181  27.654  1.00  0.00     0.220  C
HETATM   50 O50  LIG A   1     -22.878 -11.659  28.233  1.00  0.00    -0.275  O
HETATM   51 N51  LIG A   1     -24.752 -13.025  28.389  1.00  0.00    -0.370  N
HETATM   52 N52  LIG A   1     -24.128  -9.416  24.093  1.00  0.00    -0.343  N
HETATM   53 C53  LIG A   1     -24.201  -8.885  22.728  1.00  0.00     0.108  C
HETATM   54 C54  LIG A   1     -22.931  -9.194  21.980  1.00  0.00     0.243  C
HETATM   55 O55  LIG A   1     -21.816  -8.878  22.478  1.00  0.00    -0.273  O
HETATM   56 C56  LIG A   1     -24.465  -7.370  22.750  1.00  0.00    -0.022  C
HETATM   57 C57  LIG A   1     -25.897  -7.045  23.209  1.00  0.00    -0.033  C
HETATM   58 C58  LIG A   1     -26.204  -5.553  23.038  1.00  0.00     0.018  C
HETATM   59 N59  LIG A   1     -27.632  -5.290  23.220  1.00  0.00    -0.357  N
HETATM   60 C60  LIG A   1     -28.603  -5.527  22.189  1.00  0.00     0.185  C
HETATM   61 N61  LIG A   1     -28.261  -6.128  21.093  1.00  0.00    -0.270  N
HETATM   62 N62  LIG A   1     -29.954  -5.096  22.373  1.00  0.00    -0.370  N
HETATM   63 N63  LIG A   1     -23.001  -9.807  20.683  1.00  0.00    -0.342  N
HETATM   64 C64  LIG A   1     -21.825 -10.215  19.905  1.00  0.00     0.110  C
HETATM   65 C65  LIG A   1     -22.000  -9.842  18.444  1.00  0.00     0.243  C
HETATM   66 O66  LIG A   1     -23.008  -9.174  18.088  1.00  0.00    -0.273  O
HETATM   67 C67  LIG A   1     -21.525 -11.735  20.120  1.00  0.00    -0.015  C
HETATM   68 C68  LIG A   1     -20.829 -11.946  21.474  1.00  0.00    -0.060  C
HETATM   69 C69  LIG A   1     -22.768 -12.660  20.043  1.00  0.00    -0.051  C
HETATM   70 C70  LIG A   1     -23.410 -12.717  18.661  1.00  0.00    -0.065  C
HETATM   71 N71  LIG A   1     -20.993 -10.176  17.473  1.00  0.00    -0.342  N
HETATM   72 C72  LIG A   1     -21.115  -9.786  16.057  1.00  0.00     0.110  C
HETATM   73 C73  LIG A   1     -22.355 -10.399  15.435  1.00  0.00     0.246  C
HETATM   74 O74  LIG A   1     -22.716 -11.553  15.789  1.00  0.00    -0.272  O
HETATM   75 C75  LIG A   1     -19.835 -10.126  15.236  1.00  0.00    -0.015  C
HETATM   76 C76  LIG A   1     -18.650  -9.258  15.699  1.00  0.00    -0.060  C
HETATM   77 C77  LIG A   1     -19.480 -11.636  15.264  1.00  0.00    -0.051  C
HETATM   78 C78  LIG A   1     -18.418 -12.013  14.230  1.00  0.00    -0.065  C
HETATM   79 N79  LIG A   1     -23.142  -9.682  14.466  1.00  0.00    -0.329  N
HETATM   80 C80  LIG A   1     -24.598  -9.632  14.507  1.00  0.00     0.111  C
HETATM   81 C81  LIG A   1     -25.222 -11.001  14.403  1.00  0.00     0.243  C
HETATM   82 O82  LIG A   1     -24.826 -11.803  13.513  1.00  0.00    -0.273  O
HETATM   83 C83  LIG A   1     -25.013  -8.744  13.333  1.00  0.00    -0.022  C
HETATM   84 C84  LIG A   1     -23.761  -7.965  12.943  1.00  0.00    -0.033  C
HETATM   85 C85  LIG A   1     -22.583  -8.766  13.481  1.00  0.00     0.021  C
HETATM   86 N86  LIG A   1     -26.294 -11.364  15.288  1.00  0.00    -0.342  N
HETATM   87 C87  LIG A   1     -27.167 -12.530  15.117  1.00  0.00     0.110  C
HETATM   88 C88  LIG A   1     -26.379 -13.806  15.282  1.00  0.00     0.243  C
HETATM   89 O89  LIG A   1     -25.827 -14.352  14.288  1.00  0.00    -0.273  O
HETATM   90 C90  LIG A   1     -27.965 -12.469  13.784  1.00  0.00    -0.018  C
HETATM   91 C91  LIG A   1     -28.702 -11.128  13.640  1.00  0.00    -0.060  C
HETATM   92 C92  LIG A   1     -28.985 -13.619  13.699  1.00  0.00    -0.060  C
HETATM   93 N93  LIG A   1     -26.275 -14.411  16.574  1.00  0.00    -0.343  N
HETATM   94 C94  LIG A   1     -26.450 -15.856  16.741  1.00  0.00     0.108  C
HETATM   95 C95  LIG A   1     -27.901 -16.212  16.525  1.00  0.00     0.243  C
HETATM   96 O96  LIG A   1     -28.193 -17.233  15.844  1.00  0.00    -0.273  O
HETATM   97 C97  LIG A   1     -25.986 -16.293  18.144  1.00  0.00    -0.024  C
HETATM   98 C98  LIG A   1     -25.858 -17.817  18.264  1.00  0.00    -0.050  C
HETATM   99 C99  LIG A   1     -25.367 -18.219  19.660  1.00  0.00    -0.041  C
HETATM  100 C100 LIG A   1     -25.266 -19.741  19.787  1.00  0.00    -0.008  C
HETATM  101 N101 LIG A   1     -24.701 -20.103  21.081  1.00  0.00    -0.330  N
HETATM  102 N102 LIG A   1     -28.941 -15.416  17.115  1.00  0.00    -0.345  N
HETATM  103 C103 LIG A   1     -30.354 -15.765  17.005  1.00  0.00     0.097  C
HETATM  104 C104 LIG A   1     -30.668 -16.932  17.890  1.00  0.00     0.240  C
HETATM  105 O105 LIG A   1     -31.310 -17.911  17.424  1.00  0.00    -0.273  O
HETATM  106 N106 LIG A   1     -30.267 -16.914  19.268  1.00  0.00    -0.342  N
HETATM  107 C107 LIG A   1     -30.458 -18.064  20.158  1.00  0.00     0.112  C
HETATM  108 C108 LIG A   1     -30.331 -17.624  21.597  1.00  0.00     0.243  C
HETATM  109 O109 LIG A   1     -31.315 -17.773  22.374  1.00  0.00    -0.273  O
HETATM  110 C110 LIG A   1     -29.447 -19.175  19.811  1.00  0.00     0.002  C
HETATM  111 C111 LIG A   1     -29.594 -20.377  20.711  1.00  0.00    -0.045  C
HETATM  112 C112 LIG A   1     -30.662 -21.272  20.529  1.00  0.00    -0.059  C
HETATM  113 C113 LIG A   1     -28.689 -20.590  21.763  1.00  0.00    -0.059  C
HETATM  114 C114 LIG A   1     -30.816 -22.366  21.387  1.00  0.00    -0.062  C
HETATM  115 C115 LIG A   1     -28.848 -21.682  22.620  1.00  0.00    -0.062  C
HETATM  116 C116 LIG A   1     -29.911 -22.571  22.432  1.00  0.00    -0.062  C
HETATM  117 N117 LIG A   1     -29.108 -17.045  22.078  1.00  0.00    -0.340  N
HETATM  118 C118 LIG A   1     -28.934 -16.591  23.462  1.00  0.00     0.131  C
HETATM  119 C119 LIG A   1     -28.267 -15.233  23.527  1.00  0.00     0.245  C
HETATM  120 O120 LIG A   1     -28.037 -14.728  24.659  1.00  0.00    -0.273  O
HETATM  121 C121 LIG A   1     -28.128 -17.637  24.245  1.00  0.00     0.072  C
HETATM  122 O122 LIG A   1     -26.779 -17.628  23.861  1.00  0.00    -0.394  O
HETATM  123 N123 LIG A   1     -27.919 -14.502  22.337  1.00  0.00    -0.342  N
HETATM  124 C124 LIG A   1     -26.962 -13.383  22.342  1.00  0.00     0.109  C
HETATM  125 C125 LIG A   1     -26.780 -12.839  20.944  1.00  0.00     0.243  C
HETATM  126 O126 LIG A   1     -26.538 -13.637  20.002  1.00  0.00    -0.273  O
HETATM  127 C127 LIG A   1     -25.602 -13.799  22.947  1.00  0.00    -0.015  C
HETATM  128 C128 LIG A   1     -24.969 -15.041  22.289  1.00  0.00    -0.005  C
HETATM  129 S129 LIG A   1     -23.891 -15.935  23.469  1.00  0.00    -0.165  S
HETATM  130 C130 LIG A   1     -22.492 -14.772  23.384  1.00  0.00    -0.018  C
HETATM  131 N131 LIG A   1     -26.867 -11.429  20.682  1.00  0.00    -0.341  N
HETATM  132 C132 LIG A   1     -27.093 -10.909  19.327  1.00  0.00     0.127  C
HETATM  133 C133 LIG A   1     -26.435  -9.568  19.144  1.00  0.00     0.326  C
HETATM  134 O134 LIG A   1     -25.886  -9.282  18.048  1.00  0.00    -0.250  O
HETATM  135 C135 LIG A   1     -28.603 -10.850  19.021  1.00  0.00    -0.020  C
HETATM  136 C136 LIG A   1     -29.350  -9.786  19.845  1.00  0.00    -0.033  C
HETATM  137 C137 LIG A   1     -30.866  -9.934  19.711  1.00  0.00     0.018  C
HETATM  138 N138 LIG A   1     -31.555  -8.874  20.448  1.00  0.00    -0.357  N
HETATM  139 C139 LIG A   1     -32.965  -8.913  20.701  1.00  0.00     0.185  C
HETATM  140 N140 LIG A   1     -33.685  -9.887  20.241  1.00  0.00    -0.270  N
HETATM  141 N141 LIG A   1     -33.572  -7.877  21.476  1.00  0.00    -0.370  N
HETATM  142 O142 LIG A   1     -26.482  -8.613  20.154  1.00  0.00    -0.480  O
ENDROOT
TORSDOF 0
                                                                                                                                                 
ENDMDL
