MODEL 1
REMARK VINA RESULT:    32.426      0.000      0.000
REMARK INTER + INTRA:          32.426
REMARK INTER:                  32.426
REMARK INTRA:                   0.000
REMARK UNBOUND:                 0.000
ROOT
HETATM    1 N1   LIG A   1      -7.456 -31.198   2.227  1.00  0.00    -0.320  N
HETATM    2 C2   LIG A   1      -8.018 -30.914   0.905  1.00  0.00     0.084  C
HETATM    3 C3   LIG A   1      -6.952 -31.078  -0.154  1.00  0.00     0.237  C
HETATM    4 O4   LIG A   1      -6.034 -30.218  -0.248  1.00  0.00    -0.273  O
HETATM    5 C5   LIG A   1      -8.610 -29.491   0.846  1.00  0.00    -0.027  C
HETATM    6 C6   LIG A   1      -9.944 -29.318   1.611  1.00  0.00    -0.045  C
HETATM    7 C7   LIG A   1     -10.630 -28.016   1.173  1.00  0.00    -0.063  C
HETATM    8 C8   LIG A   1      -9.742 -29.308   3.135  1.00  0.00    -0.063  C
HETATM    9 N9   LIG A   1      -6.974 -32.222  -1.023  1.00  0.00    -0.343  N
HETATM   10 C10  LIG A   1      -6.024 -32.449  -2.119  1.00  0.00     0.110  C
HETATM   11 C11  LIG A   1      -4.629 -32.643  -1.559  1.00  0.00     0.243  C
HETATM   12 O12  LIG A   1      -4.321 -33.786  -1.125  1.00  0.00    -0.273  O
HETATM   13 C13  LIG A   1      -6.157 -31.368  -3.235  1.00  0.00    -0.015  C
HETATM   14 C14  LIG A   1      -5.239 -31.686  -4.430  1.00  0.00    -0.060  C
HETATM   15 C15  LIG A   1      -7.624 -31.163  -3.700  1.00  0.00    -0.051  C
HETATM   16 C16  LIG A   1      -8.291 -32.408  -4.291  1.00  0.00    -0.065  C
HETATM   17 N17  LIG A   1      -3.680 -31.564  -1.459  1.00  0.00    -0.340  N
HETATM   18 C18  LIG A   1      -2.365 -31.733  -0.835  1.00  0.00     0.131  C
HETATM   19 C19  LIG A   1      -2.403 -31.223   0.583  1.00  0.00     0.245  C
HETATM   20 O20  LIG A   1      -2.092 -32.007   1.521  1.00  0.00    -0.273  O
HETATM   21 C21  LIG A   1      -1.294 -31.019  -1.663  1.00  0.00     0.072  C
HETATM   22 O22  LIG A   1      -0.026 -31.254  -1.117  1.00  0.00    -0.394  O
HETATM   23 N23  LIG A   1      -2.785 -29.865   0.874  1.00  0.00    -0.342  N
HETATM   24 C24  LIG A   1      -2.762 -29.315   2.235  1.00  0.00     0.116  C
HETATM   25 C25  LIG A   1      -3.945 -28.406   2.448  1.00  0.00     0.243  C
HETATM   26 O26  LIG A   1      -4.880 -28.784   3.204  1.00  0.00    -0.273  O
HETATM   27 C27  LIG A   1      -1.443 -28.564   2.496  1.00  0.00     0.056  C
HETATM   28 C28  LIG A   1      -0.281 -29.509   2.596  1.00  0.00     0.220  C
HETATM   29 O29  LIG A   1      -0.139 -30.213   3.631  1.00  0.00    -0.275  O
HETATM   30 N30  LIG A   1       0.650 -29.635   1.522  1.00  0.00    -0.370  N
HETATM   31 N31  LIG A   1      -4.015 -27.120   1.810  1.00  0.00    -0.340  N
HETATM   32 C32  LIG A   1      -4.999 -26.104   2.205  1.00  0.00     0.134  C
HETATM   33 C33  LIG A   1      -6.208 -26.165   1.304  1.00  0.00     0.245  C
HETATM   34 O34  LIG A   1      -7.358 -26.123   1.819  1.00  0.00    -0.273  O
HETATM   35 C35  LIG A   1      -4.375 -24.693   2.209  1.00  0.00     0.080  C
HETATM   36 O36  LIG A   1      -3.875 -24.376   0.937  1.00  0.00    -0.391  O
HETATM   37 C37  LIG A   1      -3.251 -24.588   3.248  1.00  0.00    -0.036  C
HETATM   38 N38  LIG A   1      -6.060 -26.242  -0.122  1.00  0.00    -0.342  N
HETATM   39 C39  LIG A   1      -7.208 -26.369  -1.028  1.00  0.00     0.108  C
HETATM   40 C40  LIG A   1      -6.759 -26.870  -2.381  1.00  0.00     0.243  C
HETATM   41 O41  LIG A   1      -7.332 -27.871  -2.887  1.00  0.00    -0.273  O
HETATM   42 C42  LIG A   1      -7.941 -25.021  -1.171  1.00  0.00    -0.024  C
HETATM   43 C43  LIG A   1      -9.338 -25.196  -1.785  1.00  0.00    -0.050  C
HETATM   44 C44  LIG A   1     -10.017 -23.842  -2.004  1.00  0.00    -0.041  C
HETATM   45 C45  LIG A   1     -11.425 -24.010  -2.578  1.00  0.00    -0.008  C
HETATM   46 N46  LIG A   1     -11.991 -22.705  -2.901  1.00  0.00    -0.330  N
HETATM   47 N47  LIG A   1      -5.718 -26.183  -3.097  1.00  0.00    -0.343  N
HETATM   48 C48  LIG A   1      -5.302 -26.470  -4.473  1.00  0.00     0.108  C
HETATM   49 C49  LIG A   1      -6.361 -25.989  -5.430  1.00  0.00     0.243  C
HETATM   50 O50  LIG A   1      -7.413 -26.665  -5.602  1.00  0.00    -0.273  O
HETATM   51 C51  LIG A   1      -4.937 -27.959  -4.671  1.00  0.00    -0.024  C
HETATM   52 C52  LIG A   1      -4.020 -28.190  -5.890  1.00  0.00    -0.050  C
HETATM   53 C53  LIG A   1      -2.536 -27.874  -5.620  1.00  0.00    -0.041  C
HETATM   54 C54  LIG A   1      -1.848 -28.952  -4.774  1.00  0.00    -0.008  C
HETATM   55 N55  LIG A   1      -0.426 -28.651  -4.641  1.00  0.00    -0.330  N
HETATM   56 N56  LIG A   1      -6.212 -24.716  -6.077  1.00  0.00    -0.342  N
HETATM   57 C57  LIG A   1      -7.362 -23.965  -6.589  1.00  0.00     0.112  C
HETATM   58 C58  LIG A   1      -6.896 -22.819  -7.455  1.00  0.00     0.243  C
HETATM   59 O59  LIG A   1      -7.338 -22.717  -8.633  1.00  0.00    -0.273  O
HETATM   60 C60  LIG A   1      -8.217 -23.456  -5.413  1.00  0.00     0.002  C
HETATM   61 C61  LIG A   1      -9.501 -22.822  -5.882  1.00  0.00    -0.045  C
HETATM   62 C62  LIG A   1     -10.627 -23.620  -6.139  1.00  0.00    -0.059  C
HETATM   63 C63  LIG A   1      -9.576 -21.435  -6.094  1.00  0.00    -0.059  C
HETATM   64 C64  LIG A   1     -11.821 -23.034  -6.571  1.00  0.00    -0.062  C
HETATM   65 C65  LIG A   1     -10.771 -20.853  -6.528  1.00  0.00    -0.062  C
HETATM   66 C66  LIG A   1     -11.893 -21.651  -6.762  1.00  0.00    -0.062  C
HETATM   67 N67  LIG A   1      -5.980 -21.839  -6.943  1.00  0.00    -0.345  N
HETATM   68 C68  LIG A   1      -5.545 -20.696  -7.744  1.00  0.00     0.097  C
HETATM   69 C69  LIG A   1      -4.344 -20.043  -7.124  1.00  0.00     0.240  C
HETATM   70 O70  LIG A   1      -3.337 -20.750  -6.849  1.00  0.00    -0.273  O
HETATM   71 N71  LIG A   1      -4.326 -18.627  -6.879  1.00  0.00    -0.341  N
HETATM   72 C72  LIG A   1      -3.242 -17.964  -6.151  1.00  0.00     0.134  C
HETATM   73 C73  LIG A   1      -3.722 -17.637  -4.757  1.00  0.00     0.245  C
HETATM   74 O74  LIG A   1      -3.566 -18.508  -3.862  1.00  0.00    -0.273  O
HETATM   75 C75  LIG A   1      -2.717 -16.755  -6.960  1.00  0.00     0.080  C
HETATM   76 O76  LIG A   1      -2.269 -17.213  -8.211  1.00  0.00    -0.391  O
HETATM   77 C77  LIG A   1      -1.557 -16.052  -6.241  1.00  0.00    -0.036  C
HETATM   78 N78  LIG A   1      -4.404 -16.406  -4.442  1.00  0.00    -0.343  N
HETATM   79 C79  LIG A   1      -4.976 -16.115  -3.119  1.00  0.00     0.105  C
HETATM   80 C80  LIG A   1      -3.936 -16.228  -2.022  1.00  0.00     0.242  C
HETATM   81 O81  LIG A   1      -2.710 -16.169  -2.313  1.00  0.00    -0.273  O
HETATM   82 C82  LIG A   1      -6.179 -17.032  -2.865  1.00  0.00    -0.036  C
HETATM   83 N83  LIG A   1      -4.335 -16.332  -0.646  1.00  0.00    -0.342  N
HETATM   84 C84  LIG A   1      -3.481 -16.941   0.380  1.00  0.00     0.110  C
HETATM   85 C85  LIG A   1      -3.997 -18.326   0.684  1.00  0.00     0.243  C
HETATM   86 O86  LIG A   1      -3.219 -19.311   0.570  1.00  0.00    -0.273  O
HETATM   87 C87  LIG A   1      -3.430 -16.047   1.653  1.00  0.00    -0.015  C
HETATM   88 C88  LIG A   1      -2.557 -16.698   2.745  1.00  0.00    -0.060  C
HETATM   89 C89  LIG A   1      -2.898 -14.634   1.298  1.00  0.00    -0.051  C
HETATM   90 C90  LIG A   1      -3.022 -13.637   2.453  1.00  0.00    -0.065  C
HETATM   91 N91  LIG A   1      -5.346 -18.525   1.136  1.00  0.00    -0.343  N
HETATM   92 C92  LIG A   1      -5.844 -19.842   1.549  1.00  0.00     0.105  C
HETATM   93 C93  LIG A   1      -6.145 -20.695   0.347  1.00  0.00     0.243  C
HETATM   94 O94  LIG A   1      -5.808 -21.909   0.357  1.00  0.00    -0.273  O
HETATM   95 C95  LIG A   1      -7.103 -19.691   2.405  1.00  0.00    -0.036  C
HETATM   96 N96  LIG A   1      -6.876 -20.159  -0.767  1.00  0.00    -0.340  N
HETATM   97 C97  LIG A   1      -7.328 -20.991  -1.886  1.00  0.00     0.131  C
HETATM   98 C98  LIG A   1      -6.223 -21.118  -2.904  1.00  0.00     0.245  C
HETATM   99 O99  LIG A   1      -6.139 -20.284  -3.847  1.00  0.00    -0.273  O
HETATM  100 C100 LIG A   1      -8.602 -20.395  -2.504  1.00  0.00     0.072  C
HETATM  101 O101 LIG A   1      -9.633 -20.392  -1.556  1.00  0.00    -0.394  O
HETATM  102 N102 LIG A   1      -5.220 -22.136  -2.762  1.00  0.00    -0.342  N
HETATM  103 C103 LIG A   1      -3.845 -21.901  -3.207  1.00  0.00     0.113  C
HETATM  104 C104 LIG A   1      -3.146 -23.203  -3.513  1.00  0.00     0.243  C
HETATM  105 O105 LIG A   1      -2.822 -23.460  -4.705  1.00  0.00    -0.273  O
HETATM  106 C106 LIG A   1      -3.093 -21.092  -2.132  1.00  0.00     0.021  C
HETATM  107 C107 LIG A   1      -1.713 -20.676  -2.556  1.00  0.00     0.061  C
HETATM  108 N108 LIG A   1      -1.287 -20.599  -3.835  1.00  0.00    -0.242  N
HETATM  109 C109 LIG A   1      -0.735 -20.200  -1.713  1.00  0.00     0.024  C
HETATM  110 C110 LIG A   1      -0.039 -20.098  -3.733  1.00  0.00     0.092  C
HETATM  111 N111 LIG A   1       0.321 -19.847  -2.461  1.00  0.00    -0.351  N
HETATM  112 N112 LIG A   1      -2.818 -24.132  -2.468  1.00  0.00    -0.341  N
HETATM  113 C113 LIG A   1      -1.612 -24.966  -2.527  1.00  0.00     0.127  C
HETATM  114 C114 LIG A   1      -1.852 -26.305  -1.877  1.00  0.00     0.326  C
HETATM  115 O115 LIG A   1      -2.985 -26.849  -1.947  1.00  0.00    -0.250  O
HETATM  116 C116 LIG A   1      -0.415 -24.215  -1.899  1.00  0.00    -0.020  C
HETATM  117 C117 LIG A   1      -0.597 -23.908  -0.400  1.00  0.00    -0.033  C
HETATM  118 C118 LIG A   1       0.650 -23.236   0.185  1.00  0.00     0.018  C
HETATM  119 N119 LIG A   1       0.577 -23.195   1.645  1.00  0.00    -0.357  N
HETATM  120 C120 LIG A   1      -0.312 -22.334   2.372  1.00  0.00     0.185  C
HETATM  121 N121 LIG A   1      -1.114 -21.536   1.743  1.00  0.00    -0.270  N
HETATM  122 N122 LIG A   1      -0.303 -22.357   3.802  1.00  0.00    -0.370  N
HETATM  123 O123 LIG A   1      -0.802 -26.986  -1.269  1.00  0.00    -0.480  O
ENDROOT
TORSDOF 0
                                                                                                                              
ENDMDL
