MODEL 1
REMARK VINA RESULT:    36.974      0.000      0.000
REMARK INTER + INTRA:          36.974
REMARK INTER:                  36.974
REMARK INTRA:                   0.000
REMARK UNBOUND:                 0.000
ROOT
HETATM    1 N1   LIG A   1     -22.975 -26.897 -16.534  1.00  0.00    -0.320  N
HETATM    2 C2   LIG A   1     -23.786 -25.876 -15.869  1.00  0.00     0.084  C
HETATM    3 C3   LIG A   1     -25.034 -25.603 -16.676  1.00  0.00     0.237  C
HETATM    4 O4   LIG A   1     -24.943 -24.968 -17.762  1.00  0.00    -0.273  O
HETATM    5 C5   LIG A   1     -22.987 -24.572 -15.670  1.00  0.00    -0.027  C
HETATM    6 C6   LIG A   1     -21.907 -24.644 -14.563  1.00  0.00    -0.045  C
HETATM    7 C7   LIG A   1     -21.456 -23.225 -14.184  1.00  0.00    -0.063  C
HETATM    8 C8   LIG A   1     -20.688 -25.475 -14.994  1.00  0.00    -0.063  C
HETATM    9 N9   LIG A   1     -26.305 -26.091 -16.220  1.00  0.00    -0.343  N
HETATM   10 C10  LIG A   1     -27.584 -25.834 -16.895  1.00  0.00     0.110  C
HETATM   11 C11  LIG A   1     -27.587 -26.494 -18.260  1.00  0.00     0.243  C
HETATM   12 O12  LIG A   1     -27.863 -27.724 -18.320  1.00  0.00    -0.273  O
HETATM   13 C13  LIG A   1     -27.953 -24.319 -16.880  1.00  0.00    -0.015  C
HETATM   14 C14  LIG A   1     -29.349 -24.080 -17.486  1.00  0.00    -0.060  C
HETATM   15 C15  LIG A   1     -27.846 -23.689 -15.465  1.00  0.00    -0.051  C
HETATM   16 C16  LIG A   1     -28.761 -24.318 -14.411  1.00  0.00    -0.065  C
HETATM   17 N17  LIG A   1     -27.237 -25.784 -19.463  1.00  0.00    -0.340  N
HETATM   18 C18  LIG A   1     -27.153 -26.447 -20.767  1.00  0.00     0.131  C
HETATM   19 C19  LIG A   1     -25.715 -26.770 -21.085  1.00  0.00     0.245  C
HETATM   20 O20  LIG A   1     -25.398 -27.968 -21.320  1.00  0.00    -0.273  O
HETATM   21 C21  LIG A   1     -27.785 -25.563 -21.846  1.00  0.00     0.072  C
HETATM   22 O22  LIG A   1     -27.785 -26.233 -23.077  1.00  0.00    -0.394  O
HETATM   23 N23  LIG A   1     -24.713 -25.737 -21.123  1.00  0.00    -0.342  N
HETATM   24 C24  LIG A   1     -23.320 -26.005 -21.500  1.00  0.00     0.116  C
HETATM   25 C25  LIG A   1     -22.383 -25.190 -20.645  1.00  0.00     0.243  C
HETATM   26 O26  LIG A   1     -21.685 -25.773 -19.773  1.00  0.00    -0.273  O
HETATM   27 C27  LIG A   1     -23.093 -25.707 -22.995  1.00  0.00     0.056  C
HETATM   28 C28  LIG A   1     -23.780 -26.716 -23.868  1.00  0.00     0.220  C
HETATM   29 O29  LIG A   1     -23.299 -27.875 -23.979  1.00  0.00    -0.275  O
HETATM   30 N30  LIG A   1     -24.986 -26.383 -24.555  1.00  0.00    -0.370  N
HETATM   31 N31  LIG A   1     -22.273 -23.768 -20.818  1.00  0.00    -0.340  N
HETATM   32 C32  LIG A   1     -21.187 -22.989 -20.209  1.00  0.00     0.134  C
HETATM   33 C33  LIG A   1     -21.640 -22.387 -18.903  1.00  0.00     0.245  C
HETATM   34 O34  LIG A   1     -20.882 -22.460 -17.898  1.00  0.00    -0.273  O
HETATM   35 C35  LIG A   1     -20.667 -21.903 -21.175  1.00  0.00     0.080  C
HETATM   36 O36  LIG A   1     -21.707 -21.034 -21.538  1.00  0.00    -0.391  O
HETATM   37 C37  LIG A   1     -20.054 -22.530 -22.434  1.00  0.00    -0.036  C
HETATM   38 N38  LIG A   1     -22.905 -21.713 -18.802  1.00  0.00    -0.342  N
HETATM   39 C39  LIG A   1     -23.412 -21.172 -17.535  1.00  0.00     0.108  C
HETATM   40 C40  LIG A   1     -24.901 -20.934 -17.622  1.00  0.00     0.243  C
HETATM   41 O41  LIG A   1     -25.653 -21.418 -16.734  1.00  0.00    -0.273  O
HETATM   42 C42  LIG A   1     -22.680 -19.865 -17.169  1.00  0.00    -0.024  C
HETATM   43 C43  LIG A   1     -22.899 -19.485 -15.698  1.00  0.00    -0.050  C
HETATM   44 C44  LIG A   1     -22.243 -18.140 -15.373  1.00  0.00    -0.041  C
HETATM   45 C45  LIG A   1     -22.423 -17.773 -13.900  1.00  0.00    -0.008  C
HETATM   46 N46  LIG A   1     -21.907 -16.430 -13.654  1.00  0.00    -0.330  N
HETATM   47 N47  LIG A   1     -25.444 -20.130 -18.683  1.00  0.00    -0.343  N
HETATM   48 C48  LIG A   1     -26.840 -19.697 -18.791  1.00  0.00     0.108  C
HETATM   49 C49  LIG A   1     -27.119 -18.634 -17.760  1.00  0.00     0.243  C
HETATM   50 O50  LIG A   1     -27.306 -18.955 -16.554  1.00  0.00    -0.273  O
HETATM   51 C51  LIG A   1     -27.825 -20.886 -18.716  1.00  0.00    -0.024  C
HETATM   52 C52  LIG A   1     -29.198 -20.562 -19.339  1.00  0.00    -0.050  C
HETATM   53 C53  LIG A   1     -29.220 -20.655 -20.877  1.00  0.00    -0.041  C
HETATM   54 C54  LIG A   1     -29.224 -22.104 -21.380  1.00  0.00    -0.008  C
HETATM   55 N55  LIG A   1     -29.350 -22.128 -22.834  1.00  0.00    -0.330  N
HETATM   56 N56  LIG A   1     -27.081 -17.249 -18.136  1.00  0.00    -0.342  N
HETATM   57 C57  LIG A   1     -26.833 -16.185 -17.159  1.00  0.00     0.112  C
HETATM   58 C58  LIG A   1     -27.124 -14.834 -17.770  1.00  0.00     0.243  C
HETATM   59 O59  LIG A   1     -27.936 -14.059 -17.194  1.00  0.00    -0.273  O
HETATM   60 C60  LIG A   1     -25.378 -16.263 -16.661  1.00  0.00     0.002  C
HETATM   61 C61  LIG A   1     -25.115 -15.299 -15.533  1.00  0.00    -0.045  C
HETATM   62 C62  LIG A   1     -25.413 -15.666 -14.210  1.00  0.00    -0.059  C
HETATM   63 C63  LIG A   1     -24.600 -14.018 -15.793  1.00  0.00    -0.059  C
HETATM   64 C64  LIG A   1     -25.167 -14.776 -13.160  1.00  0.00    -0.062  C
HETATM   65 C65  LIG A   1     -24.358 -13.130 -14.741  1.00  0.00    -0.062  C
HETATM   66 C66  LIG A   1     -24.636 -13.510 -13.426  1.00  0.00    -0.062  C
HETATM   67 N67  LIG A   1     -26.470 -14.421 -18.979  1.00  0.00    -0.345  N
HETATM   68 C68  LIG A   1     -26.700 -13.104 -19.570  1.00  0.00     0.097  C
HETATM   69 C69  LIG A   1     -26.191 -13.061 -20.982  1.00  0.00     0.240  C
HETATM   70 O70  LIG A   1     -26.576 -13.942 -21.798  1.00  0.00    -0.273  O
HETATM   71 N71  LIG A   1     -25.306 -12.012 -21.409  1.00  0.00    -0.341  N
HETATM   72 C72  LIG A   1     -24.670 -12.003 -22.729  1.00  0.00     0.134  C
HETATM   73 C73  LIG A   1     -23.222 -12.403 -22.573  1.00  0.00     0.245  C
HETATM   74 O74  LIG A   1     -22.941 -13.628 -22.631  1.00  0.00    -0.273  O
HETATM   75 C75  LIG A   1     -24.899 -10.639 -23.421  1.00  0.00     0.080  C
HETATM   76 O76  LIG A   1     -26.283 -10.420 -23.533  1.00  0.00    -0.391  O
HETATM   77 C77  LIG A   1     -24.272 -10.603 -24.821  1.00  0.00    -0.036  C
HETATM   78 N78  LIG A   1     -22.180 -11.446 -22.296  1.00  0.00    -0.343  N
HETATM   79 C79  LIG A   1     -20.784 -11.824 -22.033  1.00  0.00     0.105  C
HETATM   80 C80  LIG A   1     -20.206 -12.653 -23.164  1.00  0.00     0.242  C
HETATM   81 O81  LIG A   1     -20.749 -12.625 -24.301  1.00  0.00    -0.273  O
HETATM   82 C82  LIG A   1     -20.693 -12.552 -20.686  1.00  0.00    -0.036  C
HETATM   83 N83  LIG A   1     -19.003 -13.414 -22.970  1.00  0.00    -0.342  N
HETATM   84 C84  LIG A   1     -18.674 -14.591 -23.782  1.00  0.00     0.110  C
HETATM   85 C85  LIG A   1     -18.953 -15.834 -22.973  1.00  0.00     0.243  C
HETATM   86 O86  LIG A   1     -19.734 -16.707 -23.437  1.00  0.00    -0.273  O
HETATM   87 C87  LIG A   1     -17.195 -14.530 -24.262  1.00  0.00    -0.015  C
HETATM   88 C88  LIG A   1     -16.837 -15.780 -25.091  1.00  0.00    -0.060  C
HETATM   89 C89  LIG A   1     -16.949 -13.239 -25.085  1.00  0.00    -0.051  C
HETATM   90 C90  LIG A   1     -15.471 -13.003 -25.408  1.00  0.00    -0.065  C
HETATM   91 N91  LIG A   1     -18.311 -16.046 -21.706  1.00  0.00    -0.343  N
HETATM   92 C92  LIG A   1     -18.471 -17.293 -20.950  1.00  0.00     0.105  C
HETATM   93 C93  LIG A   1     -19.803 -17.323 -20.252  1.00  0.00     0.243  C
HETATM   94 O94  LIG A   1     -20.474 -18.390 -20.256  1.00  0.00    -0.273  O
HETATM   95 C95  LIG A   1     -17.347 -17.442 -19.923  1.00  0.00    -0.036  C
HETATM   96 N96  LIG A   1     -20.274 -16.177 -19.525  1.00  0.00    -0.340  N
HETATM   97 C97  LIG A   1     -21.488 -16.211 -18.702  1.00  0.00     0.131  C
HETATM   98 C98  LIG A   1     -22.694 -15.934 -19.563  1.00  0.00     0.245  C
HETATM   99 O99  LIG A   1     -23.097 -14.748 -19.717  1.00  0.00    -0.273  O
HETATM  100 C100 LIG A   1     -21.370 -15.201 -17.549  1.00  0.00     0.072  C
HETATM  101 O101 LIG A   1     -20.302 -15.556 -16.716  1.00  0.00    -0.394  O
HETATM  102 N102 LIG A   1     -23.338 -17.003 -20.273  1.00  0.00    -0.342  N
HETATM  103 C103 LIG A   1     -23.965 -16.768 -21.575  1.00  0.00     0.113  C
HETATM  104 C104 LIG A   1     -25.039 -17.792 -21.851  1.00  0.00     0.243  C
HETATM  105 O105 LIG A   1     -26.242 -17.419 -21.908  1.00  0.00    -0.273  O
HETATM  106 C106 LIG A   1     -22.881 -16.773 -22.670  1.00  0.00     0.021  C
HETATM  107 C107 LIG A   1     -23.404 -16.399 -24.029  1.00  0.00     0.061  C
HETATM  108 N108 LIG A   1     -24.545 -15.715 -24.256  1.00  0.00    -0.242  N
HETATM  109 C109 LIG A   1     -22.735 -16.591 -25.216  1.00  0.00     0.024  C
HETATM  110 C110 LIG A   1     -24.554 -15.531 -25.592  1.00  0.00     0.092  C
HETATM  111 N111 LIG A   1     -23.470 -16.050 -26.198  1.00  0.00    -0.351  N
HETATM  112 N112 LIG A   1     -24.707 -19.170 -22.081  1.00  0.00    -0.341  N
HETATM  113 C113 LIG A   1     -25.485 -20.008 -23.002  1.00  0.00     0.127  C
HETATM  114 C114 LIG A   1     -25.529 -21.436 -22.521  1.00  0.00     0.326  C
HETATM  115 O115 LIG A   1     -25.545 -21.691 -21.289  1.00  0.00    -0.250  O
HETATM  116 C116 LIG A   1     -24.921 -19.888 -24.435  1.00  0.00    -0.020  C
HETATM  117 C117 LIG A   1     -23.475 -20.403 -24.575  1.00  0.00    -0.033  C
HETATM  118 C118 LIG A   1     -22.999 -20.333 -26.030  1.00  0.00     0.018  C
HETATM  119 N119 LIG A   1     -21.744 -21.065 -26.198  1.00  0.00    -0.357  N
HETATM  120 C120 LIG A   1     -20.482 -20.606 -25.690  1.00  0.00     0.185  C
HETATM  121 N121 LIG A   1     -20.403 -19.490 -25.039  1.00  0.00    -0.270  N
HETATM  122 N122 LIG A   1     -19.305 -21.387 -25.914  1.00  0.00    -0.370  N
HETATM  123 O123 LIG A   1     -25.635 -22.480 -23.436  1.00  0.00    -0.480  O
ENDROOT
TORSDOF 0
                                                                                                                              
ENDMDL
