MODEL 1
REMARK VINA RESULT:    79.794      0.000      0.000
REMARK INTER + INTRA:          79.794
REMARK INTER:                  79.794
REMARK INTRA:                   0.000
REMARK UNBOUND:                 0.000
ROOT
HETATM    1 N1   LIG A   1     -19.557 -13.534 -19.856  1.00  0.00    -0.320  N
HETATM    2 C2   LIG A   1     -19.608 -14.300 -21.102  1.00  0.00     0.084  C
HETATM    3 C3   LIG A   1     -21.006 -14.259 -21.676  1.00  0.00     0.237  C
HETATM    4 O4   LIG A   1     -21.925 -14.917 -21.116  1.00  0.00    -0.273  O
HETATM    5 C5   LIG A   1     -19.169 -15.762 -20.877  1.00  0.00    -0.027  C
HETATM    6 C6   LIG A   1     -17.650 -15.948 -20.653  1.00  0.00    -0.045  C
HETATM    7 C7   LIG A   1     -17.276 -17.427 -20.830  1.00  0.00    -0.063  C
HETATM    8 C8   LIG A   1     -17.204 -15.466 -19.263  1.00  0.00    -0.063  C
HETATM    9 N9   LIG A   1     -21.285 -13.452 -22.831  1.00  0.00    -0.343  N
HETATM   10 C10  LIG A   1     -22.589 -13.385 -23.501  1.00  0.00     0.110  C
HETATM   11 C11  LIG A   1     -23.616 -12.773 -22.569  1.00  0.00     0.243  C
HETATM   12 O12  LIG A   1     -23.656 -11.516 -22.480  1.00  0.00    -0.273  O
HETATM   13 C13  LIG A   1     -22.987 -14.754 -24.134  1.00  0.00    -0.015  C
HETATM   14 C14  LIG A   1     -24.299 -14.639 -24.932  1.00  0.00    -0.060  C
HETATM   15 C15  LIG A   1     -21.857 -15.363 -25.006  1.00  0.00    -0.051  C
HETATM   16 C16  LIG A   1     -21.429 -14.501 -26.197  1.00  0.00    -0.065  C
HETATM   17 N17  LIG A   1     -24.494 -13.572 -21.754  1.00  0.00    -0.340  N
HETATM   18 C18  LIG A   1     -25.423 -12.979 -20.788  1.00  0.00     0.131  C
HETATM   19 C19  LIG A   1     -24.829 -13.042 -19.404  1.00  0.00     0.245  C
HETATM   20 O20  LIG A   1     -24.683 -11.970 -18.755  1.00  0.00    -0.273  O
HETATM   21 C21  LIG A   1     -26.776 -13.691 -20.855  1.00  0.00     0.072  C
HETATM   22 O22  LIG A   1     -27.691 -13.067 -19.996  1.00  0.00    -0.394  O
HETATM   23 N23  LIG A   1     -24.433 -14.298 -18.822  1.00  0.00    -0.342  N
HETATM   24 C24  LIG A   1     -23.921 -14.403 -17.450  1.00  0.00     0.116  C
HETATM   25 C25  LIG A   1     -22.805 -15.415 -17.389  1.00  0.00     0.243  C
HETATM   26 O26  LIG A   1     -21.622 -15.013 -17.217  1.00  0.00    -0.273  O
HETATM   27 C27  LIG A   1     -25.052 -14.778 -16.474  1.00  0.00     0.056  C
HETATM   28 C28  LIG A   1     -26.016 -13.644 -16.287  1.00  0.00     0.220  C
HETATM   29 O29  LIG A   1     -25.681 -12.649 -15.589  1.00  0.00    -0.275  O
HETATM   30 N30  LIG A   1     -27.300 -13.669 -16.909  1.00  0.00    -0.370  N
HETATM   31 N31  LIG A   1     -23.073 -16.820 -17.515  1.00  0.00    -0.340  N
HETATM   32 C32  LIG A   1     -22.068 -17.840 -17.186  1.00  0.00     0.134  C
HETATM   33 C33  LIG A   1     -21.339 -18.281 -18.430  1.00  0.00     0.245  C
HETATM   34 O34  LIG A   1     -20.083 -18.386 -18.400  1.00  0.00    -0.273  O
HETATM   35 C35  LIG A   1     -22.709 -19.041 -16.458  1.00  0.00     0.080  C
HETATM   36 O36  LIG A   1     -23.706 -19.621 -17.257  1.00  0.00    -0.391  O
HETATM   37 C37  LIG A   1     -23.306 -18.617 -15.111  1.00  0.00    -0.036  C
HETATM   38 N38  LIG A   1     -22.059 -18.605 -19.630  1.00  0.00    -0.342  N
HETATM   39 C39  LIG A   1     -21.383 -18.974 -20.880  1.00  0.00     0.108  C
HETATM   40 C40  LIG A   1     -22.324 -18.823 -22.052  1.00  0.00     0.243  C
HETATM   41 O41  LIG A   1     -21.959 -18.145 -23.049  1.00  0.00    -0.273  O
HETATM   42 C42  LIG A   1     -20.847 -20.417 -20.804  1.00  0.00    -0.024  C
HETATM   43 C43  LIG A   1     -19.822 -20.700 -21.912  1.00  0.00    -0.050  C
HETATM   44 C44  LIG A   1     -19.366 -22.162 -21.880  1.00  0.00    -0.041  C
HETATM   45 C45  LIG A   1     -18.315 -22.442 -22.955  1.00  0.00    -0.008  C
HETATM   46 N46  LIG A   1     -18.003 -23.867 -22.987  1.00  0.00    -0.330  N
HETATM   47 N47  LIG A   1     -23.603 -19.481 -22.042  1.00  0.00    -0.343  N
HETATM   48 C48  LIG A   1     -24.535 -19.544 -23.172  1.00  0.00     0.108  C
HETATM   49 C49  LIG A   1     -23.992 -20.479 -24.221  1.00  0.00     0.243  C
HETATM   50 O50  LIG A   1     -23.072 -20.097 -24.995  1.00  0.00    -0.273  O
HETATM   51 C51  LIG A   1     -24.870 -18.140 -23.727  1.00  0.00    -0.024  C
HETATM   52 C52  LIG A   1     -26.194 -18.113 -24.516  1.00  0.00    -0.050  C
HETATM   53 C53  LIG A   1     -27.449 -18.047 -23.623  1.00  0.00    -0.041  C
HETATM   54 C54  LIG A   1     -27.668 -16.656 -23.016  1.00  0.00    -0.008  C
HETATM   55 N55  LIG A   1     -28.921 -16.628 -22.269  1.00  0.00    -0.330  N
HETATM   56 N56  LIG A   1     -24.463 -21.835 -24.278  1.00  0.00    -0.342  N
HETATM   57 C57  LIG A   1     -23.668 -22.908 -24.883  1.00  0.00     0.112  C
HETATM   58 C58  LIG A   1     -24.511 -24.150 -25.056  1.00  0.00     0.243  C
HETATM   59 O59  LIG A   1     -24.601 -24.680 -26.197  1.00  0.00    -0.273  O
HETATM   60 C60  LIG A   1     -22.432 -23.196 -24.011  1.00  0.00     0.002  C
HETATM   61 C61  LIG A   1     -21.493 -24.173 -24.669  1.00  0.00    -0.045  C
HETATM   62 C62  LIG A   1     -20.533 -23.716 -25.587  1.00  0.00    -0.059  C
HETATM   63 C63  LIG A   1     -21.585 -25.548 -24.396  1.00  0.00    -0.059  C
HETATM   64 C64  LIG A   1     -19.657 -24.620 -26.198  1.00  0.00    -0.062  C
HETATM   65 C65  LIG A   1     -20.709 -26.448 -25.010  1.00  0.00    -0.062  C
HETATM   66 C66  LIG A   1     -19.743 -25.984 -25.906  1.00  0.00    -0.062  C
HETATM   67 N67  LIG A   1     -25.183 -24.740 -23.933  1.00  0.00    -0.345  N
HETATM   68 C68  LIG A   1     -25.970 -25.965 -24.062  1.00  0.00     0.097  C
HETATM   69 C69  LIG A   1     -26.841 -26.164 -22.855  1.00  0.00     0.240  C
HETATM   70 O70  LIG A   1     -27.605 -25.230 -22.492  1.00  0.00    -0.273  O
HETATM   71 N71  LIG A   1     -26.830 -27.413 -22.144  1.00  0.00    -0.341  N
HETATM   72 C72  LIG A   1     -27.550 -27.611 -20.883  1.00  0.00     0.134  C
HETATM   73 C73  LIG A   1     -26.554 -27.593 -19.748  1.00  0.00     0.245  C
HETATM   74 O74  LIG A   1     -26.280 -26.482 -19.223  1.00  0.00    -0.273  O
HETATM   75 C75  LIG A   1     -28.425 -28.883 -20.963  1.00  0.00     0.080  C
HETATM   76 O76  LIG A   1     -29.325 -28.742 -22.034  1.00  0.00    -0.391  O
HETATM   77 C77  LIG A   1     -29.219 -29.106 -19.668  1.00  0.00    -0.036  C
HETATM   78 N78  LIG A   1     -25.870 -28.780 -19.300  1.00  0.00    -0.343  N
HETATM   79 C79  LIG A   1     -24.818 -28.767 -18.272  1.00  0.00     0.105  C
HETATM   80 C80  LIG A   1     -25.304 -28.137 -16.982  1.00  0.00     0.242  C
HETATM   81 O81  LIG A   1     -26.542 -28.047 -16.757  1.00  0.00    -0.273  O
HETATM   82 C82  LIG A   1     -23.571 -28.061 -18.820  1.00  0.00    -0.036  C
HETATM   83 N83  LIG A   1     -24.367 -27.707 -15.982  1.00  0.00    -0.342  N
HETATM   84 C84  LIG A   1     -24.687 -26.669 -14.995  1.00  0.00     0.110  C
HETATM   85 C85  LIG A   1     -24.019 -25.381 -15.408  1.00  0.00     0.243  C
HETATM   86 O86  LIG A   1     -24.721 -24.346 -15.561  1.00  0.00    -0.273  O
HETATM   87 C87  LIG A   1     -24.255 -27.117 -13.569  1.00  0.00    -0.015  C
HETATM   88 C88  LIG A   1     -24.562 -26.017 -12.532  1.00  0.00    -0.060  C
HETATM   89 C89  LIG A   1     -24.959 -28.444 -13.183  1.00  0.00    -0.051  C
HETATM   90 C90  LIG A   1     -24.422 -29.057 -11.888  1.00  0.00    -0.065  C
HETATM   91 N91  LIG A   1     -22.596 -25.316 -15.589  1.00  0.00    -0.343  N
HETATM   92 C92  LIG A   1     -21.903 -24.055 -15.878  1.00  0.00     0.105  C
HETATM   93 C93  LIG A   1     -22.081 -23.671 -17.322  1.00  0.00     0.243  C
HETATM   94 O94  LIG A   1     -22.319 -22.469 -17.611  1.00  0.00    -0.273  O
HETATM   95 C95  LIG A   1     -20.412 -24.180 -15.556  1.00  0.00    -0.036  C
HETATM   96 N96  LIG A   1     -21.905 -24.643 -18.364  1.00  0.00    -0.340  N
HETATM   97 C97  LIG A   1     -21.913 -24.284 -19.786  1.00  0.00     0.131  C
HETATM   98 C98  LIG A   1     -23.331 -24.259 -20.296  1.00  0.00     0.245  C
HETATM   99 O99  LIG A   1     -23.842 -25.304 -20.785  1.00  0.00    -0.273  O
HETATM  100 C100 LIG A   1     -21.041 -25.267 -20.583  1.00  0.00     0.072  C
HETATM  101 O101 LIG A   1     -19.713 -25.183 -20.148  1.00  0.00    -0.394  O
HETATM  102 N102 LIG A   1     -24.130 -23.074 -20.157  1.00  0.00    -0.342  N
HETATM  103 C103 LIG A   1     -25.577 -23.165 -19.948  1.00  0.00     0.113  C
HETATM  104 C104 LIG A   1     -26.270 -21.905 -20.406  1.00  0.00     0.243  C
HETATM  105 O105 LIG A   1     -27.044 -21.958 -21.401  1.00  0.00    -0.273  O
HETATM  106 C106 LIG A   1     -25.858 -23.459 -18.461  1.00  0.00     0.021  C
HETATM  107 C107 LIG A   1     -27.311 -23.713 -18.169  1.00  0.00     0.061  C
HETATM  108 N108 LIG A   1     -28.230 -24.086 -19.085  1.00  0.00    -0.242  N
HETATM  109 C109 LIG A   1     -27.876 -23.722 -16.914  1.00  0.00     0.024  C
HETATM  110 C110 LIG A   1     -29.349 -24.286 -18.359  1.00  0.00     0.092  C
HETATM  111 N111 LIG A   1     -29.164 -24.074 -17.043  1.00  0.00    -0.351  N
HETATM  112 N112 LIG A   1     -26.087 -20.663 -19.709  1.00  0.00    -0.341  N
HETATM  113 C113 LIG A   1     -27.164 -19.672 -19.603  1.00  0.00     0.127  C
HETATM  114 C114 LIG A   1     -26.606 -18.271 -19.601  1.00  0.00     0.326  C
HETATM  115 O115 LIG A   1     -25.577 -17.997 -20.271  1.00  0.00    -0.250  O
HETATM  116 C116 LIG A   1     -28.032 -19.960 -18.357  1.00  0.00    -0.020  C
HETATM  117 C117 LIG A   1     -27.263 -19.836 -17.027  1.00  0.00    -0.033  C
HETATM  118 C118 LIG A   1     -28.190 -20.054 -15.827  1.00  0.00     0.018  C
HETATM  119 N119 LIG A   1     -27.523 -19.672 -14.583  1.00  0.00    -0.357  N
HETATM  120 C120 LIG A   1     -26.460 -20.429 -13.987  1.00  0.00     0.185  C
HETATM  121 N121 LIG A   1     -26.033 -21.516 -14.547  1.00  0.00    -0.270  N
HETATM  122 N122 LIG A   1     -25.875 -19.981 -12.761  1.00  0.00    -0.370  N
HETATM  123 O123 LIG A   1     -27.274 -17.253 -18.926  1.00  0.00    -0.480  O
ENDROOT
TORSDOF 0
                                                                                                                              
ENDMDL
