MODEL 1
REMARK VINA RESULT:   416.211      0.000      0.000
REMARK INTER + INTRA:         416.211
REMARK INTER:                 416.211
REMARK INTRA:                   0.000
REMARK UNBOUND:                 0.000
ROOT
HETATM    1 N1   LIG A   1      -4.268 -29.606  -2.219  1.00  0.00    -0.320  N
HETATM    2 C2   LIG A   1      -5.167 -29.643  -1.059  1.00  0.00     0.087  C
HETATM    3 C3   LIG A   1      -4.439 -29.214   0.193  1.00  0.00     0.237  C
HETATM    4 O4   LIG A   1      -5.094 -28.674   1.126  1.00  0.00    -0.273  O
HETATM    5 C5   LIG A   1      -5.811 -31.048  -0.875  1.00  0.00    -0.020  C
HETATM    6 C6   LIG A   1      -6.868 -31.312  -1.963  1.00  0.00    -0.061  C
HETATM    7 C7   LIG A   1      -4.750 -32.177  -0.830  1.00  0.00    -0.052  C
HETATM    8 C8   LIG A   1      -5.336 -33.534  -0.440  1.00  0.00    -0.065  C
HETATM    9 N9   LIG A   1      -3.026 -29.437   0.347  1.00  0.00    -0.341  N
HETATM   10 C10  LIG A   1      -2.256 -28.804   1.420  1.00  0.00     0.131  C
HETATM   11 C11  LIG A   1      -2.276 -27.308   1.244  1.00  0.00     0.245  C
HETATM   12 O12  LIG A   1      -2.463 -26.568   2.248  1.00  0.00    -0.273  O
HETATM   13 C13  LIG A   1      -0.810 -29.324   1.424  1.00  0.00     0.072  C
HETATM   14 O14  LIG A   1      -0.107 -28.831   2.534  1.00  0.00    -0.394  O
HETATM   15 N15  LIG A   1      -2.069 -26.730  -0.054  1.00  0.00    -0.342  N
HETATM   16 C16  LIG A   1      -2.324 -25.314  -0.328  1.00  0.00     0.108  C
HETATM   17 C17  LIG A   1      -3.810 -25.113  -0.497  1.00  0.00     0.243  C
HETATM   18 O18  LIG A   1      -4.354 -25.349  -1.611  1.00  0.00    -0.273  O
HETATM   19 C19  LIG A   1      -1.552 -24.858  -1.587  1.00  0.00    -0.021  C
HETATM   20 C20  LIG A   1      -0.014 -25.000  -1.468  1.00  0.00    -0.045  C
HETATM   21 C21  LIG A   1       0.631 -24.928  -2.860  1.00  0.00    -0.063  C
HETATM   22 C22  LIG A   1       0.594 -23.924  -0.559  1.00  0.00    -0.063  C
HETATM   23 N23  LIG A   1      -4.618 -24.755   0.632  1.00  0.00    -0.343  N
HETATM   24 C24  LIG A   1      -6.074 -24.942   0.649  1.00  0.00     0.105  C
HETATM   25 C25  LIG A   1      -6.784 -23.674   0.255  1.00  0.00     0.242  C
HETATM   26 O26  LIG A   1      -6.192 -22.567   0.372  1.00  0.00    -0.273  O
HETATM   27 C27  LIG A   1      -6.524 -25.379   2.044  1.00  0.00    -0.036  C
HETATM   28 N28  LIG A   1      -8.153 -23.733  -0.191  1.00  0.00    -0.342  N
HETATM   29 C29  LIG A   1      -9.056 -22.578  -0.338  1.00  0.00     0.110  C
HETATM   30 C30  LIG A   1      -8.359 -21.406  -0.999  1.00  0.00     0.246  C
HETATM   31 O31  LIG A   1      -8.162 -20.337  -0.360  1.00  0.00    -0.272  O
HETATM   32 C32  LIG A   1      -9.774 -22.229   1.003  1.00  0.00    -0.015  C
HETATM   33 C33  LIG A   1     -10.801 -23.322   1.354  1.00  0.00    -0.060  C
HETATM   34 C34  LIG A   1      -8.793 -22.006   2.183  1.00  0.00    -0.051  C
HETATM   35 C35  LIG A   1      -9.423 -21.227   3.337  1.00  0.00    -0.065  C
HETATM   36 N36  LIG A   1      -7.871 -21.518  -2.344  1.00  0.00    -0.329  N
HETATM   37 C37  LIG A   1      -6.649 -20.875  -2.807  1.00  0.00     0.111  C
HETATM   38 C38  LIG A   1      -6.867 -19.404  -3.054  1.00  0.00     0.243  C
HETATM   39 O39  LIG A   1      -8.033 -18.924  -3.031  1.00  0.00    -0.273  O
HETATM   40 C40  LIG A   1      -6.308 -21.596  -4.110  1.00  0.00    -0.022  C
HETATM   41 C41  LIG A   1      -7.631 -22.164  -4.605  1.00  0.00    -0.033  C
HETATM   42 C42  LIG A   1      -8.483 -22.356  -3.359  1.00  0.00     0.021  C
HETATM   43 N43  LIG A   1      -5.746 -18.565  -3.369  1.00  0.00    -0.343  N
HETATM   44 C44  LIG A   1      -5.901 -17.145  -3.705  1.00  0.00     0.108  C
HETATM   45 C45  LIG A   1      -6.750 -16.951  -4.936  1.00  0.00     0.243  C
HETATM   46 O46  LIG A   1      -6.919 -17.901  -5.746  1.00  0.00    -0.273  O
HETATM   47 C47  LIG A   1      -4.536 -16.418  -3.805  1.00  0.00    -0.021  C
HETATM   48 C48  LIG A   1      -3.742 -16.611  -5.122  1.00  0.00    -0.045  C
HETATM   49 C49  LIG A   1      -2.504 -15.703  -5.115  1.00  0.00    -0.063  C
HETATM   50 C50  LIG A   1      -3.315 -18.065  -5.333  1.00  0.00    -0.063  C
HETATM   51 N51  LIG A   1      -7.324 -15.665  -5.211  1.00  0.00    -0.343  N
HETATM   52 C52  LIG A   1      -8.763 -15.405  -5.361  1.00  0.00     0.105  C
HETATM   53 C53  LIG A   1      -9.295 -14.761  -4.106  1.00  0.00     0.243  C
HETATM   54 O54  LIG A   1      -9.828 -13.620  -4.180  1.00  0.00    -0.273  O
HETATM   55 C55  LIG A   1      -9.579 -16.653  -5.725  1.00  0.00    -0.036  C
HETATM   56 N56  LIG A   1      -9.192 -15.426  -2.836  1.00  0.00    -0.340  N
HETATM   57 C57  LIG A   1      -9.470 -14.764  -1.555  1.00  0.00     0.131  C
HETATM   58 C58  LIG A   1      -8.180 -14.441  -0.822  1.00  0.00     0.245  C
HETATM   59 O59  LIG A   1      -8.222 -14.172   0.410  1.00  0.00    -0.273  O
HETATM   60 C60  LIG A   1     -10.393 -15.668  -0.724  1.00  0.00     0.072  C
HETATM   61 O61  LIG A   1     -10.858 -14.986   0.409  1.00  0.00    -0.394  O
HETATM   62 N62  LIG A   1      -6.928 -14.346  -1.528  1.00  0.00    -0.342  N
HETATM   63 C63  LIG A   1      -5.640 -14.015  -0.906  1.00  0.00     0.108  C
HETATM   64 C64  LIG A   1      -5.369 -14.896   0.295  1.00  0.00     0.243  C
HETATM   65 O65  LIG A   1      -5.232 -14.382   1.439  1.00  0.00    -0.273  O
HETATM   66 C66  LIG A   1      -5.563 -12.508  -0.573  1.00  0.00    -0.024  C
HETATM   67 C67  LIG A   1      -5.683 -11.601  -1.818  1.00  0.00    -0.050  C
HETATM   68 C68  LIG A   1      -4.335 -11.084  -2.354  1.00  0.00    -0.041  C
HETATM   69 C69  LIG A   1      -3.485 -12.162  -3.041  1.00  0.00    -0.008  C
HETATM   70 N70  LIG A   1      -2.704 -12.913  -2.061  1.00  0.00    -0.330  N
HETATM   71 N71  LIG A   1      -5.262 -16.320   0.127  1.00  0.00    -0.342  N
HETATM   72 C72  LIG A   1      -4.941 -17.235   1.227  1.00  0.00     0.110  C
HETATM   73 C73  LIG A   1      -3.622 -17.913   0.941  1.00  0.00     0.243  C
HETATM   74 O74  LIG A   1      -2.660 -17.732   1.737  1.00  0.00    -0.273  O
HETATM   75 C75  LIG A   1      -6.074 -18.278   1.449  1.00  0.00    -0.015  C
HETATM   76 C76  LIG A   1      -5.811 -19.114   2.715  1.00  0.00    -0.060  C
HETATM   77 C77  LIG A   1      -7.491 -17.650   1.482  1.00  0.00    -0.051  C
HETATM   78 C78  LIG A   1      -7.747 -16.708   2.661  1.00  0.00    -0.065  C
HETATM   79 N79  LIG A   1      -3.455 -18.768  -0.205  1.00  0.00    -0.340  N
HETATM   80 C80  LIG A   1      -2.399 -19.783  -0.259  1.00  0.00     0.131  C
HETATM   81 C81  LIG A   1      -1.850 -19.911  -1.664  1.00  0.00     0.245  C
HETATM   82 O82  LIG A   1      -0.811 -19.262  -1.965  1.00  0.00    -0.273  O
HETATM   83 C83  LIG A   1      -2.928 -21.114   0.298  1.00  0.00     0.072  C
HETATM   84 O84  LIG A   1      -1.919 -22.084   0.291  1.00  0.00    -0.394  O
HETATM   85 N85  LIG A   1      -2.481 -20.735  -2.658  1.00  0.00    -0.345  N
HETATM   86 C86  LIG A   1      -1.736 -21.195  -3.832  1.00  0.00     0.097  C
HETATM   87 C87  LIG A   1      -2.635 -21.898  -4.809  1.00  0.00     0.240  C
HETATM   88 O88  LIG A   1      -3.346 -21.214  -5.591  1.00  0.00    -0.273  O
HETATM   89 N89  LIG A   1      -2.680 -23.332  -4.855  1.00  0.00    -0.342  N
HETATM   90 C90  LIG A   1      -3.412 -24.068  -5.894  1.00  0.00     0.112  C
HETATM   91 C91  LIG A   1      -4.074 -25.289  -5.305  1.00  0.00     0.243  C
HETATM   92 O92  LIG A   1      -3.432 -26.027  -4.509  1.00  0.00    -0.273  O
HETATM   93 C93  LIG A   1      -2.455 -24.508  -7.013  1.00  0.00     0.002  C
HETATM   94 C94  LIG A   1      -1.877 -23.330  -7.753  1.00  0.00    -0.045  C
HETATM   95 C95  LIG A   1      -0.614 -22.821  -7.406  1.00  0.00    -0.059  C
HETATM   96 C96  LIG A   1      -2.609 -22.716  -8.783  1.00  0.00    -0.059  C
HETATM   97 C97  LIG A   1      -0.080 -21.732  -8.101  1.00  0.00    -0.062  C
HETATM   98 C98  LIG A   1      -2.064 -21.640  -9.487  1.00  0.00    -0.062  C
HETATM   99 C99  LIG A   1      -0.800 -21.149  -9.148  1.00  0.00    -0.062  C
HETATM  100 N100 LIG A   1      -5.388 -25.672  -5.742  1.00  0.00    -0.340  N
HETATM  101 C101 LIG A   1      -5.975 -26.981  -5.418  1.00  0.00     0.134  C
HETATM  102 C102 LIG A   1      -7.080 -27.336  -6.389  1.00  0.00     0.245  C
HETATM  103 O103 LIG A   1      -7.110 -28.503  -6.870  1.00  0.00    -0.273  O
HETATM  104 C104 LIG A   1      -6.424 -27.067  -3.935  1.00  0.00     0.080  C
HETATM  105 O105 LIG A   1      -7.075 -28.286  -3.675  1.00  0.00    -0.391  O
HETATM  106 C106 LIG A   1      -7.276 -25.882  -3.465  1.00  0.00    -0.036  C
HETATM  107 N107 LIG A   1      -8.100 -26.391  -6.754  1.00  0.00    -0.342  N
HETATM  108 C108 LIG A   1      -9.077 -26.687  -7.806  1.00  0.00     0.108  C
HETATM  109 C109 LIG A   1      -8.377 -26.722  -9.141  1.00  0.00     0.243  C
HETATM  110 O110 LIG A   1      -8.487 -27.744  -9.871  1.00  0.00    -0.273  O
HETATM  111 C111 LIG A   1     -10.202 -25.627  -7.812  1.00  0.00    -0.021  C
HETATM  112 C112 LIG A   1     -11.379 -25.983  -8.757  1.00  0.00    -0.045  C
HETATM  113 C113 LIG A   1     -12.318 -27.014  -8.114  1.00  0.00    -0.063  C
HETATM  114 C114 LIG A   1     -12.166 -24.722  -9.132  1.00  0.00    -0.063  C
HETATM  115 N115 LIG A   1      -7.609 -25.593  -9.588  1.00  0.00    -0.343  N
HETATM  116 C116 LIG A   1      -7.176 -25.451 -10.983  1.00  0.00     0.105  C
HETATM  117 C117 LIG A   1      -6.082 -24.421 -11.125  1.00  0.00     0.242  C
HETATM  118 O118 LIG A   1      -6.002 -23.460 -10.314  1.00  0.00    -0.273  O
HETATM  119 C119 LIG A   1      -8.369 -25.073 -11.863  1.00  0.00    -0.036  C
HETATM  120 N120 LIG A   1      -5.176 -24.498 -12.236  1.00  0.00    -0.343  N
HETATM  121 C121 LIG A   1      -4.118 -23.503 -12.460  1.00  0.00     0.108  C
HETATM  122 C122 LIG A   1      -4.693 -22.199 -12.959  1.00  0.00     0.243  C
HETATM  123 O123 LIG A   1      -3.985 -21.160 -12.884  1.00  0.00    -0.273  O
HETATM  124 C124 LIG A   1      -3.068 -24.030 -13.460  1.00  0.00    -0.021  C
HETATM  125 C125 LIG A   1      -2.315 -25.291 -12.966  1.00  0.00    -0.045  C
HETATM  126 C126 LIG A   1      -1.432 -24.995 -11.741  1.00  0.00    -0.063  C
HETATM  127 C127 LIG A   1      -1.455 -25.860 -14.101  1.00  0.00    -0.063  C
HETATM  128 N128 LIG A   1      -6.005 -22.133 -13.544  1.00  0.00    -0.342  N
HETATM  129 C129 LIG A   1      -6.708 -20.863 -13.773  1.00  0.00     0.110  C
HETATM  130 C130 LIG A   1      -8.129 -20.959 -13.262  1.00  0.00     0.243  C
HETATM  131 O131 LIG A   1      -8.763 -22.039 -13.389  1.00  0.00    -0.273  O
HETATM  132 C132 LIG A   1      -6.621 -20.456 -15.268  1.00  0.00    -0.018  C
HETATM  133 C133 LIG A   1      -7.311 -21.456 -16.211  1.00  0.00    -0.060  C
HETATM  134 C134 LIG A   1      -7.171 -19.042 -15.505  1.00  0.00    -0.060  C
HETATM  135 N135 LIG A   1      -8.755 -19.812 -12.654  1.00  0.00    -0.343  N
HETATM  136 C136 LIG A   1      -9.959 -19.852 -11.810  1.00  0.00     0.108  C
HETATM  137 C137 LIG A   1      -9.664 -20.563 -10.516  1.00  0.00     0.243  C
HETATM  138 O138 LIG A   1      -9.161 -21.718 -10.542  1.00  0.00    -0.273  O
HETATM  139 C139 LIG A   1     -11.170 -20.454 -12.561  1.00  0.00    -0.024  C
HETATM  140 C140 LIG A   1     -12.516 -20.212 -11.847  1.00  0.00    -0.050  C
HETATM  141 C141 LIG A   1     -12.906 -21.370 -10.915  1.00  0.00    -0.041  C
HETATM  142 C142 LIG A   1     -14.245 -21.098 -10.226  1.00  0.00    -0.008  C
HETATM  143 N143 LIG A   1     -14.577 -22.194  -9.322  1.00  0.00    -0.330  N
HETATM  144 N144 LIG A   1      -9.955 -19.929  -9.256  1.00  0.00    -0.342  N
HETATM  145 C145 LIG A   1      -9.455 -20.427  -7.967  1.00  0.00     0.116  C
HETATM  146 C146 LIG A   1      -7.954 -20.577  -8.038  1.00  0.00     0.243  C
HETATM  147 O147 LIG A   1      -7.410 -21.713  -7.941  1.00  0.00    -0.273  O
HETATM  148 C148 LIG A   1     -10.193 -21.722  -7.556  1.00  0.00     0.056  C
HETATM  149 C149 LIG A   1     -11.571 -21.451  -7.016  1.00  0.00     0.220  C
HETATM  150 O150 LIG A   1     -12.290 -20.550  -7.524  1.00  0.00    -0.275  O
HETATM  151 N151 LIG A   1     -12.096 -22.259  -5.962  1.00  0.00    -0.370  N
HETATM  152 N152 LIG A   1      -7.153 -19.415  -8.297  1.00  0.00    -0.343  N
HETATM  153 C153 LIG A   1      -5.785 -19.518  -8.817  1.00  0.00     0.105  C
HETATM  154 C154 LIG A   1      -5.027 -18.220  -8.665  1.00  0.00     0.243  C
HETATM  155 O155 LIG A   1      -5.642 -17.129  -8.509  1.00  0.00    -0.273  O
HETATM  156 C156 LIG A   1      -5.831 -19.904 -10.293  1.00  0.00    -0.036  C
HETATM  157 N157 LIG A   1      -3.598 -18.221  -8.798  1.00  0.00    -0.340  N
HETATM  158 C158 LIG A   1      -2.834 -16.991  -9.034  1.00  0.00     0.131  C
HETATM  159 C159 LIG A   1      -3.192 -16.405 -10.376  1.00  0.00     0.245  C
HETATM  160 O160 LIG A   1      -3.327 -15.155 -10.486  1.00  0.00    -0.273  O
HETATM  161 C161 LIG A   1      -1.328 -17.275  -8.969  1.00  0.00     0.072  C
HETATM  162 O162 LIG A   1      -0.612 -16.072  -9.027  1.00  0.00    -0.394  O
HETATM  163 N163 LIG A   1      -3.333 -17.252 -11.530  1.00  0.00    -0.339  N
HETATM  164 C164 LIG A   1      -3.649 -16.716 -12.860  1.00  0.00     0.153  C
HETATM  165 C165 LIG A   1      -5.049 -16.165 -12.852  1.00  0.00     0.328  C
HETATM  166 O166 LIG A   1      -5.264 -14.987 -13.247  1.00  0.00    -0.250  O
HETATM  167 C167 LIG A   1      -3.495 -17.814 -13.938  1.00  0.00     0.082  C
HETATM  168 O168 LIG A   1      -2.210 -18.375 -13.845  1.00  0.00    -0.391  O
HETATM  169 C169 LIG A   1      -3.694 -17.255 -15.353  1.00  0.00    -0.036  C
HETATM  170 O170 LIG A   1      -6.108 -16.956 -12.421  1.00  0.00    -0.480  O
ENDROOT
TORSDOF 0
                                                                                                                                                                             
ENDMDL
