MODEL 1
REMARK VINA RESULT:  1112.510      0.000      0.000
REMARK INTER + INTRA:        1112.510
REMARK INTER:                1112.510
REMARK INTRA:                   0.000
REMARK UNBOUND:                 0.000
ROOT
HETATM    1 N1   LIG A   1     -16.004 -19.868 -10.941  1.00  0.00    -0.320  N
HETATM    2 C2   LIG A   1     -14.870 -19.201 -11.592  1.00  0.00     0.087  C
HETATM    3 C3   LIG A   1     -13.563 -19.672 -11.000  1.00  0.00     0.237  C
HETATM    4 O4   LIG A   1     -12.528 -19.662 -11.720  1.00  0.00    -0.273  O
HETATM    5 C5   LIG A   1     -14.991 -17.651 -11.512  1.00  0.00    -0.020  C
HETATM    6 C6   LIG A   1     -16.098 -17.139 -12.451  1.00  0.00    -0.061  C
HETATM    7 C7   LIG A   1     -15.206 -17.156 -10.058  1.00  0.00    -0.052  C
HETATM    8 C8   LIG A   1     -15.116 -15.636  -9.926  1.00  0.00    -0.065  C
HETATM    9 N9   LIG A   1     -13.478 -20.104  -9.631  1.00  0.00    -0.341  N
HETATM   10 C10  LIG A   1     -12.301 -20.807  -9.114  1.00  0.00     0.131  C
HETATM   11 C11  LIG A   1     -12.145 -22.126  -9.823  1.00  0.00     0.245  C
HETATM   12 O12  LIG A   1     -11.001 -22.491 -10.210  1.00  0.00    -0.273  O
HETATM   13 C13  LIG A   1     -12.427 -21.024  -7.598  1.00  0.00     0.072  C
HETATM   14 O14  LIG A   1     -11.245 -21.567  -7.073  1.00  0.00    -0.394  O
HETATM   15 N15  LIG A   1     -13.287 -22.967 -10.043  1.00  0.00    -0.342  N
HETATM   16 C16  LIG A   1     -13.242 -24.128 -10.935  1.00  0.00     0.108  C
HETATM   17 C17  LIG A   1     -13.346 -23.646 -12.362  1.00  0.00     0.243  C
HETATM   18 O18  LIG A   1     -14.478 -23.401 -12.862  1.00  0.00    -0.273  O
HETATM   19 C19  LIG A   1     -14.380 -25.118 -10.596  1.00  0.00    -0.021  C
HETATM   20 C20  LIG A   1     -14.312 -25.684  -9.156  1.00  0.00    -0.045  C
HETATM   21 C21  LIG A   1     -15.661 -26.308  -8.771  1.00  0.00    -0.063  C
HETATM   22 C22  LIG A   1     -13.197 -26.725  -9.000  1.00  0.00    -0.063  C
HETATM   23 N23  LIG A   1     -12.157 -23.369 -13.114  1.00  0.00    -0.343  N
HETATM   24 C24  LIG A   1     -12.165 -22.530 -14.319  1.00  0.00     0.105  C
HETATM   25 C25  LIG A   1     -12.264 -23.374 -15.562  1.00  0.00     0.242  C
HETATM   26 O26  LIG A   1     -11.914 -24.585 -15.522  1.00  0.00    -0.273  O
HETATM   27 C27  LIG A   1     -10.894 -21.680 -14.367  1.00  0.00    -0.036  C
HETATM   28 N28  LIG A   1     -12.696 -22.774 -16.798  1.00  0.00    -0.342  N
HETATM   29 C29  LIG A   1     -12.577 -23.384 -18.134  1.00  0.00     0.110  C
HETATM   30 C30  LIG A   1     -12.973 -24.847 -18.116  1.00  0.00     0.246  C
HETATM   31 O31  LIG A   1     -12.118 -25.743 -18.351  1.00  0.00    -0.272  O
HETATM   32 C32  LIG A   1     -11.184 -23.102 -18.778  1.00  0.00    -0.015  C
HETATM   33 C33  LIG A   1     -11.069 -21.613 -19.159  1.00  0.00    -0.060  C
HETATM   34 C34  LIG A   1      -9.995 -23.525 -17.878  1.00  0.00    -0.051  C
HETATM   35 C35  LIG A   1      -8.691 -23.691 -18.658  1.00  0.00    -0.065  C
HETATM   36 N36  LIG A   1     -14.316 -25.230 -17.783  1.00  0.00    -0.329  N
HETATM   37 C37  LIG A   1     -14.640 -26.439 -17.040  1.00  0.00     0.111  C
HETATM   38 C38  LIG A   1     -14.558 -27.659 -17.921  1.00  0.00     0.243  C
HETATM   39 O39  LIG A   1     -14.416 -27.531 -19.168  1.00  0.00    -0.273  O
HETATM   40 C40  LIG A   1     -16.074 -26.219 -16.559  1.00  0.00    -0.022  C
HETATM   41 C41  LIG A   1     -16.666 -25.208 -17.531  1.00  0.00    -0.033  C
HETATM   42 C42  LIG A   1     -15.483 -24.412 -18.061  1.00  0.00     0.021  C
HETATM   43 N43  LIG A   1     -14.693 -28.964 -17.340  1.00  0.00    -0.343  N
HETATM   44 C44  LIG A   1     -14.709 -30.186 -18.153  1.00  0.00     0.108  C
HETATM   45 C45  LIG A   1     -15.858 -30.193 -19.129  1.00  0.00     0.243  C
HETATM   46 O46  LIG A   1     -16.854 -29.446 -18.942  1.00  0.00    -0.273  O
HETATM   47 C47  LIG A   1     -14.663 -31.466 -17.280  1.00  0.00    -0.021  C
HETATM   48 C48  LIG A   1     -15.999 -31.915 -16.636  1.00  0.00    -0.045  C
HETATM   49 C49  LIG A   1     -15.808 -33.273 -15.946  1.00  0.00    -0.063  C
HETATM   50 C50  LIG A   1     -16.528 -30.893 -15.627  1.00  0.00    -0.063  C
HETATM   51 N51  LIG A   1     -15.838 -31.094 -20.246  1.00  0.00    -0.343  N
HETATM   52 C52  LIG A   1     -15.911 -30.681 -21.656  1.00  0.00     0.105  C
HETATM   53 C53  LIG A   1     -14.540 -30.756 -22.277  1.00  0.00     0.243  C
HETATM   54 O54  LIG A   1     -14.356 -31.512 -23.270  1.00  0.00    -0.273  O
HETATM   55 C55  LIG A   1     -16.530 -29.292 -21.859  1.00  0.00    -0.036  C
HETATM   56 N56  LIG A   1     -13.448 -29.988 -21.745  1.00  0.00    -0.340  N
HETATM   57 C57  LIG A   1     -12.050 -30.191 -22.147  1.00  0.00     0.131  C
HETATM   58 C58  LIG A   1     -11.278 -30.929 -21.067  1.00  0.00     0.245  C
HETATM   59 O59  LIG A   1     -10.017 -30.909 -21.089  1.00  0.00    -0.273  O
HETATM   60 C60  LIG A   1     -11.427 -28.824 -22.467  1.00  0.00     0.072  C
HETATM   61 O61  LIG A   1     -10.167 -28.986 -23.059  1.00  0.00    -0.394  O
HETATM   62 N62  LIG A   1     -11.961 -31.723 -20.079  1.00  0.00    -0.342  N
HETATM   63 C63  LIG A   1     -11.296 -32.489 -19.017  1.00  0.00     0.108  C
HETATM   64 C64  LIG A   1     -10.320 -31.625 -18.247  1.00  0.00     0.243  C
HETATM   65 O65  LIG A   1      -9.093 -31.917 -18.229  1.00  0.00    -0.273  O
HETATM   66 C66  LIG A   1     -10.642 -33.768 -19.588  1.00  0.00    -0.024  C
HETATM   67 C67  LIG A   1     -11.657 -34.732 -20.241  1.00  0.00    -0.050  C
HETATM   68 C68  LIG A   1     -12.082 -35.906 -19.338  1.00  0.00    -0.041  C
HETATM   69 C69  LIG A   1     -12.998 -35.495 -18.176  1.00  0.00    -0.008  C
HETATM   70 N70  LIG A   1     -12.216 -35.020 -17.037  1.00  0.00    -0.330  N
HETATM   71 N71  LIG A   1     -10.797 -30.473 -17.531  1.00  0.00    -0.342  N
HETATM   72 C72  LIG A   1      -9.927 -29.621 -16.713  1.00  0.00     0.110  C
HETATM   73 C73  LIG A   1     -10.370 -29.698 -15.271  1.00  0.00     0.243  C
HETATM   74 O74  LIG A   1      -9.564 -30.150 -14.411  1.00  0.00    -0.273  O
HETATM   75 C75  LIG A   1      -9.926 -28.151 -17.224  1.00  0.00    -0.015  C
HETATM   76 C76  LIG A   1      -8.877 -27.310 -16.476  1.00  0.00    -0.060  C
HETATM   77 C77  LIG A   1      -9.740 -28.033 -18.759  1.00  0.00    -0.051  C
HETATM   78 C78  LIG A   1      -8.381 -28.508 -19.278  1.00  0.00    -0.065  C
HETATM   79 N79  LIG A   1     -11.677 -29.251 -14.866  1.00  0.00    -0.340  N
HETATM   80 C80  LIG A   1     -11.964 -28.871 -13.480  1.00  0.00     0.131  C
HETATM   81 C81  LIG A   1     -13.369 -29.279 -13.092  1.00  0.00     0.245  C
HETATM   82 O82  LIG A   1     -13.532 -30.379 -12.496  1.00  0.00    -0.273  O
HETATM   83 C83  LIG A   1     -11.705 -27.368 -13.289  1.00  0.00     0.072  C
HETATM   84 O84  LIG A   1     -11.935 -26.996 -11.960  1.00  0.00    -0.394  O
HETATM   85 N85  LIG A   1     -14.512 -28.461 -13.392  1.00  0.00    -0.345  N
HETATM   86 C86  LIG A   1     -15.767 -28.629 -12.655  1.00  0.00     0.097  C
HETATM   87 C87  LIG A   1     -16.863 -27.788 -13.244  1.00  0.00     0.240  C
HETATM   88 O88  LIG A   1     -17.469 -28.200 -14.269  1.00  0.00    -0.273  O
HETATM   89 N89  LIG A   1     -17.221 -26.535 -12.645  1.00  0.00    -0.342  N
HETATM   90 C90  LIG A   1     -18.388 -25.754 -13.079  1.00  0.00     0.112  C
HETATM   91 C91  LIG A   1     -18.072 -24.280 -13.052  1.00  0.00     0.243  C
HETATM   92 O92  LIG A   1     -17.465 -23.787 -12.063  1.00  0.00    -0.273  O
HETATM   93 C93  LIG A   1     -19.587 -26.028 -12.157  1.00  0.00     0.002  C
HETATM   94 C94  LIG A   1     -20.057 -27.456 -12.256  1.00  0.00    -0.045  C
HETATM   95 C95  LIG A   1     -19.621 -28.415 -11.327  1.00  0.00    -0.059  C
HETATM   96 C96  LIG A   1     -20.920 -27.843 -13.295  1.00  0.00    -0.059  C
HETATM   97 C97  LIG A   1     -20.068 -29.737 -11.420  1.00  0.00    -0.062  C
HETATM   98 C98  LIG A   1     -21.378 -29.160 -13.374  1.00  0.00    -0.062  C
HETATM   99 C99  LIG A   1     -20.953 -30.106 -12.437  1.00  0.00    -0.062  C
HETATM  100 N100 LIG A   1     -18.568 -23.423 -14.093  1.00  0.00    -0.340  N
HETATM  101 C101 LIG A   1     -18.532 -21.956 -13.989  1.00  0.00     0.134  C
HETATM  102 C102 LIG A   1     -19.545 -21.320 -14.916  1.00  0.00     0.245  C
HETATM  103 O103 LIG A   1     -20.268 -20.387 -14.472  1.00  0.00    -0.273  O
HETATM  104 C104 LIG A   1     -17.099 -21.394 -14.184  1.00  0.00     0.080  C
HETATM  105 O105 LIG A   1     -17.104 -19.987 -14.184  1.00  0.00    -0.391  O
HETATM  106 C106 LIG A   1     -16.371 -21.937 -15.419  1.00  0.00    -0.036  C
HETATM  107 N107 LIG A   1     -19.682 -21.736 -16.286  1.00  0.00    -0.342  N
HETATM  108 C108 LIG A   1     -20.762 -21.226 -17.136  1.00  0.00     0.108  C
HETATM  109 C109 LIG A   1     -22.080 -21.772 -16.648  1.00  0.00     0.243  C
HETATM  110 O110 LIG A   1     -23.015 -20.973 -16.368  1.00  0.00    -0.273  O
HETATM  111 C111 LIG A   1     -20.523 -21.625 -18.610  1.00  0.00    -0.021  C
HETATM  112 C112 LIG A   1     -21.510 -20.950 -19.598  1.00  0.00    -0.045  C
HETATM  113 C113 LIG A   1     -21.098 -19.501 -19.896  1.00  0.00    -0.063  C
HETATM  114 C114 LIG A   1     -21.591 -21.749 -20.904  1.00  0.00    -0.063  C
HETATM  115 N115 LIG A   1     -22.278 -23.189 -16.524  1.00  0.00    -0.343  N
HETATM  116 C116 LIG A   1     -23.613 -23.776 -16.359  1.00  0.00     0.105  C
HETATM  117 C117 LIG A   1     -23.539 -25.202 -15.868  1.00  0.00     0.242  C
HETATM  118 O118 LIG A   1     -22.538 -25.918 -16.138  1.00  0.00    -0.273  O
HETATM  119 C119 LIG A   1     -24.375 -23.718 -17.684  1.00  0.00    -0.036  C
HETATM  120 N120 LIG A   1     -24.650 -25.764 -15.154  1.00  0.00    -0.343  N
HETATM  121 C121 LIG A   1     -24.662 -27.157 -14.688  1.00  0.00     0.108  C
HETATM  122 C122 LIG A   1     -24.858 -28.115 -15.839  1.00  0.00     0.243  C
HETATM  123 O123 LIG A   1     -24.566 -29.329 -15.670  1.00  0.00    -0.273  O
HETATM  124 C124 LIG A   1     -25.765 -27.376 -13.631  1.00  0.00    -0.021  C
HETATM  125 C125 LIG A   1     -25.568 -26.539 -12.342  1.00  0.00    -0.045  C
HETATM  126 C126 LIG A   1     -24.318 -26.973 -11.556  1.00  0.00    -0.063  C
HETATM  127 C127 LIG A   1     -26.810 -26.659 -11.451  1.00  0.00    -0.063  C
HETATM  128 N128 LIG A   1     -25.399 -27.676 -17.096  1.00  0.00    -0.342  N
HETATM  129 C129 LIG A   1     -25.337 -28.494 -18.315  1.00  0.00     0.110  C
HETATM  130 C130 LIG A   1     -24.843 -27.657 -19.475  1.00  0.00     0.243  C
HETATM  131 O131 LIG A   1     -25.196 -26.451 -19.566  1.00  0.00    -0.273  O
HETATM  132 C132 LIG A   1     -26.708 -29.169 -18.588  1.00  0.00    -0.018  C
HETATM  133 C133 LIG A   1     -27.839 -28.162 -18.854  1.00  0.00    -0.060  C
HETATM  134 C134 LIG A   1     -26.623 -30.184 -19.736  1.00  0.00    -0.060  C
HETATM  135 N135 LIG A   1     -23.992 -28.246 -20.478  1.00  0.00    -0.343  N
HETATM  136 C136 LIG A   1     -23.164 -27.495 -21.434  1.00  0.00     0.108  C
HETATM  137 C137 LIG A   1     -22.059 -26.771 -20.708  1.00  0.00     0.243  C
HETATM  138 O138 LIG A   1     -22.343 -26.008 -19.747  1.00  0.00    -0.273  O
HETATM  139 C139 LIG A   1     -24.014 -26.554 -22.319  1.00  0.00    -0.024  C
HETATM  140 C140 LIG A   1     -23.250 -26.007 -23.543  1.00  0.00    -0.050  C
HETATM  141 C141 LIG A   1     -22.588 -24.648 -23.264  1.00  0.00    -0.041  C
HETATM  142 C142 LIG A   1     -21.842 -24.133 -24.497  1.00  0.00    -0.008  C
HETATM  143 N143 LIG A   1     -21.196 -22.859 -24.198  1.00  0.00    -0.330  N
HETATM  144 N144 LIG A   1     -20.688 -26.947 -21.112  1.00  0.00    -0.342  N
HETATM  145 C145 LIG A   1     -19.545 -26.504 -20.301  1.00  0.00     0.116  C
HETATM  146 C146 LIG A   1     -19.665 -27.082 -18.911  1.00  0.00     0.243  C
HETATM  147 O147 LIG A   1     -19.825 -26.332 -17.909  1.00  0.00    -0.273  O
HETATM  148 C148 LIG A   1     -19.420 -24.963 -20.329  1.00  0.00     0.056  C
HETATM  149 C149 LIG A   1     -18.817 -24.458 -21.611  1.00  0.00     0.220  C
HETATM  150 O150 LIG A   1     -19.108 -25.002 -22.710  1.00  0.00    -0.275  O
HETATM  151 N151 LIG A   1     -17.960 -23.317 -21.597  1.00  0.00    -0.370  N
HETATM  152 N152 LIG A   1     -19.672 -28.508 -18.752  1.00  0.00    -0.343  N
HETATM  153 C153 LIG A   1     -20.217 -29.150 -17.551  1.00  0.00     0.105  C
HETATM  154 C154 LIG A   1     -19.793 -30.596 -17.445  1.00  0.00     0.243  C
HETATM  155 O155 LIG A   1     -19.395 -31.227 -18.464  1.00  0.00    -0.273  O
HETATM  156 C156 LIG A   1     -21.742 -29.073 -17.583  1.00  0.00    -0.036  C
HETATM  157 N157 LIG A   1     -19.939 -31.282 -16.194  1.00  0.00    -0.340  N
HETATM  158 C158 LIG A   1     -19.910 -32.745 -16.095  1.00  0.00     0.131  C
HETATM  159 C159 LIG A   1     -21.087 -33.341 -16.825  1.00  0.00     0.245  C
HETATM  160 O160 LIG A   1     -20.919 -34.381 -17.518  1.00  0.00    -0.273  O
HETATM  161 C161 LIG A   1     -19.925 -33.183 -14.625  1.00  0.00     0.072  C
HETATM  162 O162 LIG A   1     -19.727 -34.568 -14.537  1.00  0.00    -0.394  O
HETATM  163 N163 LIG A   1     -22.397 -32.760 -16.698  1.00  0.00    -0.339  N
HETATM  164 C164 LIG A   1     -23.573 -33.329 -17.366  1.00  0.00     0.153  C
HETATM  165 C165 LIG A   1     -23.429 -33.157 -18.853  1.00  0.00     0.328  C
HETATM  166 O166 LIG A   1     -23.554 -34.152 -19.617  1.00  0.00    -0.250  O
HETATM  167 C167 LIG A   1     -24.867 -32.652 -16.856  1.00  0.00     0.082  C
HETATM  168 O168 LIG A   1     -24.914 -32.743 -15.455  1.00  0.00    -0.391  O
HETATM  169 C169 LIG A   1     -26.123 -33.312 -17.441  1.00  0.00    -0.036  C
HETATM  170 O170 LIG A   1     -23.170 -31.900 -19.389  1.00  0.00    -0.480  O
ENDROOT
TORSDOF 0
                                                                                                                                                                             
ENDMDL
