MODEL 1
REMARK VINA RESULT:     2.452      0.000      0.000
REMARK INTER + INTRA:           2.452
REMARK INTER:                   2.452
REMARK INTRA:                   0.000
REMARK UNBOUND:                 0.000
ROOT
HETATM    1 N1   LIG A   1      21.424   8.213  30.541  1.00  0.00    -0.320  N
HETATM    2 C2   LIG A   1      22.274   8.923  29.579  1.00  0.00     0.087  C
HETATM    3 C3   LIG A   1      23.465   9.539  30.272  1.00  0.00     0.237  C
HETATM    4 O4   LIG A   1      24.533   9.702  29.622  1.00  0.00    -0.273  O
HETATM    5 C5   LIG A   1      21.472   9.999  28.788  1.00  0.00    -0.020  C
HETATM    6 C6   LIG A   1      20.520   9.338  27.775  1.00  0.00    -0.061  C
HETATM    7 C7   LIG A   1      20.714  10.971  29.729  1.00  0.00    -0.052  C
HETATM    8 C8   LIG A   1      20.095  12.157  28.989  1.00  0.00    -0.065  C
HETATM    9 N9   LIG A   1      23.392   9.962  31.645  1.00  0.00    -0.341  N
HETATM   10 C10  LIG A   1      24.591  10.313  32.411  1.00  0.00     0.131  C
HETATM   11 C11  LIG A   1      25.476   9.102  32.549  1.00  0.00     0.245  C
HETATM   12 O12  LIG A   1      26.720   9.220  32.379  1.00  0.00    -0.273  O
HETATM   13 C13  LIG A   1      24.205  10.856  33.795  1.00  0.00     0.072  C
HETATM   14 O14  LIG A   1      25.336  11.325  34.478  1.00  0.00    -0.394  O
HETATM   15 N15  LIG A   1      24.908   7.827  32.887  1.00  0.00    -0.342  N
HETATM   16 C16  LIG A   1      25.674   6.582  32.790  1.00  0.00     0.108  C
HETATM   17 C17  LIG A   1      25.722   6.155  31.343  1.00  0.00     0.243  C
HETATM   18 O18  LIG A   1      24.758   5.513  30.843  1.00  0.00    -0.273  O
HETATM   19 C19  LIG A   1      25.038   5.485  33.674  1.00  0.00    -0.021  C
HETATM   20 C20  LIG A   1      24.991   5.840  35.180  1.00  0.00    -0.045  C
HETATM   21 C21  LIG A   1      24.001   4.919  35.909  1.00  0.00    -0.063  C
HETATM   22 C22  LIG A   1      26.373   5.739  35.839  1.00  0.00    -0.063  C
HETATM   23 N23  LIG A   1      26.815   6.567  30.510  1.00  0.00    -0.343  N
HETATM   24 C24  LIG A   1      26.737   6.552  29.045  1.00  0.00     0.105  C
HETATM   25 C25  LIG A   1      27.325   5.282  28.487  1.00  0.00     0.242  C
HETATM   26 O26  LIG A   1      28.147   4.621  29.178  1.00  0.00    -0.273  O
HETATM   27 C27  LIG A   1      27.477   7.762  28.474  1.00  0.00    -0.036  C
HETATM   28 N28  LIG A   1      26.992   4.871  27.147  1.00  0.00    -0.342  N
HETATM   29 C29  LIG A   1      27.689   3.829  26.373  1.00  0.00     0.110  C
HETATM   30 C30  LIG A   1      27.981   2.607  27.220  1.00  0.00     0.246  C
HETATM   31 O31  LIG A   1      29.170   2.281  27.484  1.00  0.00    -0.272  O
HETATM   32 C32  LIG A   1      28.929   4.401  25.618  1.00  0.00    -0.015  C
HETATM   33 C33  LIG A   1      28.472   5.319  24.469  1.00  0.00    -0.060  C
HETATM   34 C34  LIG A   1      29.923   5.146  26.546  1.00  0.00    -0.051  C
HETATM   35 C35  LIG A   1      31.315   5.288  25.931  1.00  0.00    -0.065  C
HETATM   36 N36  LIG A   1      26.904   1.833  27.771  1.00  0.00    -0.329  N
HETATM   37 C37  LIG A   1      26.970   1.189  29.074  1.00  0.00     0.111  C
HETATM   38 C38  LIG A   1      27.790  -0.074  29.019  1.00  0.00     0.243  C
HETATM   39 O39  LIG A   1      28.162  -0.539  27.906  1.00  0.00    -0.273  O
HETATM   40 C40  LIG A   1      25.514   0.871  29.417  1.00  0.00    -0.022  C
HETATM   41 C41  LIG A   1      24.799   0.803  28.075  1.00  0.00    -0.033  C
HETATM   42 C42  LIG A   1      25.605   1.690  27.138  1.00  0.00     0.021  C
HETATM   43 N43  LIG A   1      28.100  -0.772  30.233  1.00  0.00    -0.343  N
HETATM   44 C44  LIG A   1      28.819  -2.052  30.239  1.00  0.00     0.108  C
HETATM   45 C45  LIG A   1      28.067  -3.120  29.485  1.00  0.00     0.243  C
HETATM   46 O46  LIG A   1      26.832  -2.995  29.271  1.00  0.00    -0.273  O
HETATM   47 C47  LIG A   1      29.204  -2.497  31.672  1.00  0.00    -0.021  C
HETATM   48 C48  LIG A   1      28.086  -3.157  32.518  1.00  0.00    -0.045  C
HETATM   49 C49  LIG A   1      28.675  -3.676  33.838  1.00  0.00    -0.063  C
HETATM   50 C50  LIG A   1      26.935  -2.192  32.810  1.00  0.00    -0.063  C
HETATM   51 N51  LIG A   1      28.751  -4.306  29.058  1.00  0.00    -0.343  N
HETATM   52 C52  LIG A   1      28.854  -4.758  27.663  1.00  0.00     0.105  C
HETATM   53 C53  LIG A   1      30.226  -4.439  27.126  1.00  0.00     0.243  C
HETATM   54 O54  LIG A   1      30.958  -5.380  26.714  1.00  0.00    -0.273  O
HETATM   55 C55  LIG A   1      27.761  -4.187  26.750  1.00  0.00    -0.036  C
HETATM   56 N56  LIG A   1      30.705  -3.084  27.090  1.00  0.00    -0.340  N
HETATM   57 C57  LIG A   1      32.102  -2.732  26.806  1.00  0.00     0.131  C
HETATM   58 C58  LIG A   1      32.827  -2.328  28.077  1.00  0.00     0.245  C
HETATM   59 O59  LIG A   1      33.916  -1.695  27.991  1.00  0.00    -0.273  O
HETATM   60 C60  LIG A   1      32.123  -1.615  25.752  1.00  0.00     0.072  C
HETATM   61 O61  LIG A   1      33.429  -1.398  25.292  1.00  0.00    -0.394  O
HETATM   62 N62  LIG A   1      32.342  -2.734  29.370  1.00  0.00    -0.342  N
HETATM   63 C63  LIG A   1      32.991  -2.411  30.647  1.00  0.00     0.108  C
HETATM   64 C64  LIG A   1      33.269  -0.928  30.760  1.00  0.00     0.243  C
HETATM   65 O65  LIG A   1      34.455  -0.513  30.881  1.00  0.00    -0.273  O
HETATM   66 C66  LIG A   1      34.256  -3.275  30.854  1.00  0.00    -0.024  C
HETATM   67 C67  LIG A   1      33.958  -4.791  30.896  1.00  0.00    -0.050  C
HETATM   68 C68  LIG A   1      33.881  -5.379  32.317  1.00  0.00    -0.041  C
HETATM   69 C69  LIG A   1      32.624  -4.963  33.095  1.00  0.00    -0.008  C
HETATM   70 N70  LIG A   1      32.815  -3.666  33.739  1.00  0.00    -0.330  N
HETATM   71 N71  LIG A   1      32.177   0.008  30.735  1.00  0.00    -0.342  N
HETATM   72 C72  LIG A   1      32.358   1.455  30.900  1.00  0.00     0.110  C
HETATM   73 C73  LIG A   1      31.655   1.903  32.160  1.00  0.00     0.243  C
HETATM   74 O74  LIG A   1      32.339   2.416  33.088  1.00  0.00    -0.273  O
HETATM   75 C75  LIG A   1      31.843   2.238  29.658  1.00  0.00    -0.015  C
HETATM   76 C76  LIG A   1      32.200   3.731  29.764  1.00  0.00    -0.060  C
HETATM   77 C77  LIG A   1      32.328   1.644  28.311  1.00  0.00    -0.051  C
HETATM   78 C78  LIG A   1      33.840   1.726  28.082  1.00  0.00    -0.065  C
HETATM   79 N79  LIG A   1      30.229   1.770  32.307  1.00  0.00    -0.340  N
HETATM   80 C80  LIG A   1      29.475   2.590  33.258  1.00  0.00     0.131  C
HETATM   81 C81  LIG A   1      28.342   1.795  33.872  1.00  0.00     0.245  C
HETATM   82 O82  LIG A   1      28.535   1.236  34.986  1.00  0.00    -0.273  O
HETATM   83 C83  LIG A   1      28.996   3.877  32.570  1.00  0.00     0.072  C
HETATM   84 O84  LIG A   1      28.308   4.692  33.476  1.00  0.00    -0.394  O
HETATM   85 N85  LIG A   1      27.069   1.653  33.220  1.00  0.00    -0.345  N
HETATM   86 C86  LIG A   1      25.876   1.278  33.982  1.00  0.00     0.097  C
HETATM   87 C87  LIG A   1      24.704   1.030  33.076  1.00  0.00     0.240  C
HETATM   88 O88  LIG A   1      24.611  -0.077  32.483  1.00  0.00    -0.273  O
HETATM   89 N89  LIG A   1      23.700   2.038  32.892  1.00  0.00    -0.342  N
HETATM   90 C90  LIG A   1      22.455   1.790  32.151  1.00  0.00     0.112  C
HETATM   91 C91  LIG A   1      22.078   3.004  31.339  1.00  0.00     0.243  C
HETATM   92 O92  LIG A   1      22.146   4.151  31.858  1.00  0.00    -0.273  O
HETATM   93 C93  LIG A   1      21.311   1.461  33.123  1.00  0.00     0.002  C
HETATM   94 C94  LIG A   1      21.552   0.168  33.856  1.00  0.00    -0.045  C
HETATM   95 C95  LIG A   1      22.120   0.173  35.142  1.00  0.00    -0.059  C
HETATM   96 C96  LIG A   1      21.229  -1.057  33.250  1.00  0.00    -0.059  C
HETATM   97 C97  LIG A   1      22.334  -1.031  35.820  1.00  0.00    -0.062  C
HETATM   98 C98  LIG A   1      21.428  -2.256  33.938  1.00  0.00    -0.062  C
HETATM   99 C99  LIG A   1      21.979  -2.244  35.223  1.00  0.00    -0.062  C
HETATM  100 N100 LIG A   1      21.530   2.840  30.021  1.00  0.00    -0.340  N
HETATM  101 C101 LIG A   1      20.895   3.947  29.290  1.00  0.00     0.134  C
HETATM  102 C102 LIG A   1      19.968   3.427  28.213  1.00  0.00     0.245  C
HETATM  103 O103 LIG A   1      18.825   3.949  28.095  1.00  0.00    -0.273  O
HETATM  104 C104 LIG A   1      21.937   4.962  28.750  1.00  0.00     0.080  C
HETATM  105 O105 LIG A   1      21.318   5.953  27.968  1.00  0.00    -0.391  O
HETATM  106 C106 LIG A   1      23.107   4.321  27.994  1.00  0.00    -0.036  C
HETATM  107 N107 LIG A   1      20.366   2.378  27.314  1.00  0.00    -0.342  N
HETATM  108 C108 LIG A   1      19.417   1.773  26.375  1.00  0.00     0.108  C
HETATM  109 C109 LIG A   1      18.395   0.975  27.144  1.00  0.00     0.243  C
HETATM  110 O110 LIG A   1      17.168   1.213  26.974  1.00  0.00    -0.273  O
HETATM  111 C111 LIG A   1      20.160   0.871  25.363  1.00  0.00    -0.021  C
HETATM  112 C112 LIG A   1      19.253   0.360  24.213  1.00  0.00    -0.045  C
HETATM  113 C113 LIG A   1      19.050   1.441  23.140  1.00  0.00    -0.063  C
HETATM  114 C114 LIG A   1      19.852  -0.900  23.577  1.00  0.00    -0.063  C
HETATM  115 N115 LIG A   1      18.813  -0.064  28.043  1.00  0.00    -0.343  N
HETATM  116 C116 LIG A   1      17.873  -1.062  28.568  1.00  0.00     0.105  C
HETATM  117 C117 LIG A   1      18.439  -1.787  29.766  1.00  0.00     0.242  C
HETATM  118 O118 LIG A   1      19.685  -1.930  29.894  1.00  0.00    -0.273  O
HETATM  119 C119 LIG A   1      17.513  -2.066  27.471  1.00  0.00    -0.036  C
HETATM  120 N120 LIG A   1      17.549  -2.380  30.722  1.00  0.00    -0.343  N
HETATM  121 C121 LIG A   1      18.032  -3.138  31.884  1.00  0.00     0.108  C
HETATM  122 C122 LIG A   1      18.563  -4.490  31.471  1.00  0.00     0.243  C
HETATM  123 O123 LIG A   1      19.305  -5.117  32.273  1.00  0.00    -0.273  O
HETATM  124 C124 LIG A   1      16.914  -3.313  32.933  1.00  0.00    -0.021  C
HETATM  125 C125 LIG A   1      16.403  -1.976  33.528  1.00  0.00    -0.045  C
HETATM  126 C126 LIG A   1      17.481  -1.265  34.364  1.00  0.00    -0.063  C
HETATM  127 C127 LIG A   1      15.162  -2.233  34.390  1.00  0.00    -0.063  C
HETATM  128 N128 LIG A   1      18.211  -5.080  30.208  1.00  0.00    -0.342  N
HETATM  129 C129 LIG A   1      18.921  -6.238  29.648  1.00  0.00     0.110  C
HETATM  130 C130 LIG A   1      19.268  -5.982  28.198  1.00  0.00     0.243  C
HETATM  131 O131 LIG A   1      18.458  -5.351  27.468  1.00  0.00    -0.273  O
HETATM  132 C132 LIG A   1      18.096  -7.536  29.861  1.00  0.00    -0.018  C
HETATM  133 C133 LIG A   1      16.743  -7.522  29.131  1.00  0.00    -0.060  C
HETATM  134 C134 LIG A   1      18.895  -8.787  29.468  1.00  0.00    -0.060  C
HETATM  135 N135 LIG A   1      20.507  -6.477  27.654  1.00  0.00    -0.343  N
HETATM  136 C136 LIG A   1      21.130  -6.012  26.405  1.00  0.00     0.108  C
HETATM  137 C137 LIG A   1      21.592  -4.585  26.554  1.00  0.00     0.243  C
HETATM  138 O138 LIG A   1      20.777  -3.706  26.941  1.00  0.00    -0.273  O
HETATM  139 C139 LIG A   1      20.201  -6.215  25.187  1.00  0.00    -0.024  C
HETATM  140 C140 LIG A   1      20.923  -6.060  23.832  1.00  0.00    -0.050  C
HETATM  141 C141 LIG A   1      20.833  -4.630  23.277  1.00  0.00    -0.041  C
HETATM  142 C142 LIG A   1      21.557  -4.512  21.933  1.00  0.00    -0.008  C
HETATM  143 N143 LIG A   1      21.486  -3.140  21.443  1.00  0.00    -0.330  N
HETATM  144 N144 LIG A   1      22.955  -4.228  26.255  1.00  0.00    -0.342  N
HETATM  145 C145 LIG A   1      23.552  -2.939  26.629  1.00  0.00     0.116  C
HETATM  146 C146 LIG A   1      23.360  -2.710  28.109  1.00  0.00     0.243  C
HETATM  147 O147 LIG A   1      22.648  -1.756  28.531  1.00  0.00    -0.273  O
HETATM  148 C148 LIG A   1      22.994  -1.800  25.743  1.00  0.00     0.056  C
HETATM  149 C149 LIG A   1      23.609  -1.786  24.371  1.00  0.00     0.220  C
HETATM  150 O150 LIG A   1      23.865  -2.866  23.774  1.00  0.00    -0.275  O
HETATM  151 N151 LIG A   1      23.850  -0.544  23.708  1.00  0.00    -0.370  N
HETATM  152 N152 LIG A   1      23.938  -3.642  29.034  1.00  0.00    -0.343  N
HETATM  153 C153 LIG A   1      23.452  -3.765  30.413  1.00  0.00     0.105  C
HETATM  154 C154 LIG A   1      24.424  -4.523  31.286  1.00  0.00     0.243  C
HETATM  155 O155 LIG A   1      25.294  -5.282  30.774  1.00  0.00    -0.273  O
HETATM  156 C156 LIG A   1      22.106  -4.487  30.414  1.00  0.00    -0.036  C
HETATM  157 N157 LIG A   1      24.290  -4.453  32.713  1.00  0.00    -0.340  N
HETATM  158 C158 LIG A   1      24.931  -5.423  33.607  1.00  0.00     0.131  C
HETATM  159 C159 LIG A   1      24.351  -6.797  33.387  1.00  0.00     0.245  C
HETATM  160 O160 LIG A   1      25.121  -7.797  33.383  1.00  0.00    -0.273  O
HETATM  161 C161 LIG A   1      24.748  -5.004  35.071  1.00  0.00     0.072  C
HETATM  162 O162 LIG A   1      25.503  -5.839  35.906  1.00  0.00    -0.394  O
HETATM  163 N163 LIG A   1      22.933  -6.976  33.229  1.00  0.00    -0.339  N
HETATM  164 C164 LIG A   1      22.327  -8.300  33.045  1.00  0.00     0.153  C
HETATM  165 C165 LIG A   1      22.741  -8.853  31.709  1.00  0.00     0.328  C
HETATM  166 O166 LIG A   1      23.254 -10.002  31.634  1.00  0.00    -0.250  O
HETATM  167 C167 LIG A   1      20.786  -8.212  33.151  1.00  0.00     0.082  C
HETATM  168 O168 LIG A   1      20.442  -7.597  34.367  1.00  0.00    -0.391  O
HETATM  169 C169 LIG A   1      20.131  -9.598  33.091  1.00  0.00    -0.036  C
HETATM  170 O170 LIG A   1      22.548  -8.104  30.553  1.00  0.00    -0.480  O
ENDROOT
TORSDOF 0
                                                                                                                                                                             
ENDMDL
