MODEL 1
REMARK VINA RESULT:     2.437      0.000      0.000
REMARK INTER + INTRA:           2.437
REMARK INTER:                   2.437
REMARK INTRA:                   0.000
REMARK UNBOUND:                 0.000
ROOT
HETATM    1 N1   LIG A   1      21.535   8.244  30.479  1.00  0.00    -0.320  N
HETATM    2 C2   LIG A   1      22.441   8.922  29.544  1.00  0.00     0.087  C
HETATM    3 C3   LIG A   1      23.636   9.486  30.274  1.00  0.00     0.237  C
HETATM    4 O4   LIG A   1      24.729   9.607  29.656  1.00  0.00    -0.273  O
HETATM    5 C5   LIG A   1      21.708  10.031  28.735  1.00  0.00    -0.020  C
HETATM    6 C6   LIG A   1      20.760   9.412  27.692  1.00  0.00    -0.061  C
HETATM    7 C7   LIG A   1      20.963  11.031  29.656  1.00  0.00    -0.052  C
HETATM    8 C8   LIG A   1      20.415  12.243  28.903  1.00  0.00    -0.065  C
HETATM    9 N9   LIG A   1      23.540   9.909  31.646  1.00  0.00    -0.341  N
HETATM   10 C10  LIG A   1      24.730  10.208  32.448  1.00  0.00     0.131  C
HETATM   11 C11  LIG A   1      25.560   8.962  32.607  1.00  0.00     0.245  C
HETATM   12 O12  LIG A   1      26.812   9.029  32.474  1.00  0.00    -0.273  O
HETATM   13 C13  LIG A   1      24.326  10.763  33.822  1.00  0.00     0.072  C
HETATM   14 O14  LIG A   1      25.455  11.185  34.539  1.00  0.00    -0.394  O
HETATM   15 N15  LIG A   1      24.931   7.710  32.924  1.00  0.00    -0.342  N
HETATM   16 C16  LIG A   1      25.647   6.435  32.844  1.00  0.00     0.108  C
HETATM   17 C17  LIG A   1      25.721   6.010  31.398  1.00  0.00     0.243  C
HETATM   18 O18  LIG A   1      24.746   5.409  30.868  1.00  0.00    -0.273  O
HETATM   19 C19  LIG A   1      24.942   5.363  33.706  1.00  0.00    -0.021  C
HETATM   20 C20  LIG A   1      24.865   5.716  35.212  1.00  0.00    -0.045  C
HETATM   21 C21  LIG A   1      23.817   4.835  35.908  1.00  0.00    -0.063  C
HETATM   22 C22  LIG A   1      26.222   5.557  35.909  1.00  0.00    -0.063  C
HETATM   23 N23  LIG A   1      26.854   6.379  30.599  1.00  0.00    -0.343  N
HETATM   24 C24  LIG A   1      26.817   6.370  29.132  1.00  0.00     0.105  C
HETATM   25 C25  LIG A   1      27.369   5.079  28.587  1.00  0.00     0.242  C
HETATM   26 O26  LIG A   1      28.143   4.383  29.300  1.00  0.00    -0.273  O
HETATM   27 C27  LIG A   1      27.623   7.551  28.587  1.00  0.00    -0.036  C
HETATM   28 N28  LIG A   1      27.058   4.685  27.237  1.00  0.00    -0.342  N
HETATM   29 C29  LIG A   1      27.735   3.617  26.479  1.00  0.00     0.110  C
HETATM   30 C30  LIG A   1      27.951   2.382  27.330  1.00  0.00     0.246  C
HETATM   31 O31  LIG A   1      29.118   2.007  27.627  1.00  0.00    -0.272  O
HETATM   32 C32  LIG A   1      29.019   4.139  25.762  1.00  0.00    -0.015  C
HETATM   33 C33  LIG A   1      28.634   5.079  24.604  1.00  0.00    -0.060  C
HETATM   34 C34  LIG A   1      30.014   4.841  26.722  1.00  0.00    -0.051  C
HETATM   35 C35  LIG A   1      31.429   4.927  26.148  1.00  0.00    -0.065  C
HETATM   36 N36  LIG A   1      26.829   1.652  27.846  1.00  0.00    -0.329  N
HETATM   37 C37  LIG A   1      26.829   1.002  29.149  1.00  0.00     0.111  C
HETATM   38 C38  LIG A   1      27.598  -0.293  29.113  1.00  0.00     0.243  C
HETATM   39 O39  LIG A   1      27.984  -0.770  28.010  1.00  0.00    -0.273  O
HETATM   40 C40  LIG A   1      25.353   0.744  29.448  1.00  0.00    -0.022  C
HETATM   41 C41  LIG A   1      24.674   0.708  28.086  1.00  0.00    -0.033  C
HETATM   42 C42  LIG A   1      25.544   1.563  27.176  1.00  0.00     0.021  C
HETATM   43 N43  LIG A   1      27.844  -1.006  30.333  1.00  0.00    -0.343  N
HETATM   44 C44  LIG A   1      28.510  -2.314  30.356  1.00  0.00     0.108  C
HETATM   45 C45  LIG A   1      27.737  -3.348  29.576  1.00  0.00     0.243  C
HETATM   46 O46  LIG A   1      26.515  -3.172  29.327  1.00  0.00    -0.273  O
HETATM   47 C47  LIG A   1      28.834  -2.778  31.798  1.00  0.00    -0.021  C
HETATM   48 C48  LIG A   1      27.666  -3.394  32.608  1.00  0.00    -0.045  C
HETATM   49 C49  LIG A   1      28.195  -3.939  33.943  1.00  0.00    -0.063  C
HETATM   50 C50  LIG A   1      26.547  -2.383  32.871  1.00  0.00    -0.063  C
HETATM   51 N51  LIG A   1      28.385  -4.561  29.166  1.00  0.00    -0.343  N
HETATM   52 C52  LIG A   1      28.509  -5.013  27.772  1.00  0.00     0.105  C
HETATM   53 C53  LIG A   1      29.908  -4.750  27.276  1.00  0.00     0.243  C
HETATM   54 O54  LIG A   1      30.613  -5.719  26.883  1.00  0.00    -0.273  O
HETATM   55 C55  LIG A   1      27.467  -4.396  26.830  1.00  0.00    -0.036  C
HETATM   56 N56  LIG A   1      30.443  -3.416  27.259  1.00  0.00    -0.340  N
HETATM   57 C57  LIG A   1      31.862  -3.121  27.017  1.00  0.00     0.131  C
HETATM   58 C58  LIG A   1      32.565  -2.749  28.310  1.00  0.00     0.245  C
HETATM   59 O59  LIG A   1      33.681  -2.162  28.258  1.00  0.00    -0.273  O
HETATM   60 C60  LIG A   1      31.958  -2.003  25.968  1.00  0.00     0.072  C
HETATM   61 O61  LIG A   1      33.286  -1.838  25.547  1.00  0.00    -0.394  O
HETATM   62 N62  LIG A   1      32.026  -3.138  29.587  1.00  0.00    -0.342  N
HETATM   63 C63  LIG A   1      32.650  -2.845  30.884  1.00  0.00     0.108  C
HETATM   64 C64  LIG A   1      32.985  -1.375  31.010  1.00  0.00     0.243  C
HETATM   65 O65  LIG A   1      34.183  -1.009  31.167  1.00  0.00    -0.273  O
HETATM   66 C66  LIG A   1      33.872  -3.761  31.124  1.00  0.00    -0.024  C
HETATM   67 C67  LIG A   1      33.512  -5.263  31.152  1.00  0.00    -0.050  C
HETATM   68 C68  LIG A   1      33.369  -5.851  32.569  1.00  0.00    -0.041  C
HETATM   69 C69  LIG A   1      32.108  -5.386  33.311  1.00  0.00    -0.008  C
HETATM   70 N70  LIG A   1      32.333  -4.100  33.965  1.00  0.00    -0.330  N
HETATM   71 N71  LIG A   1      31.934  -0.395  30.957  1.00  0.00    -0.342  N
HETATM   72 C72  LIG A   1      32.169   1.043  31.132  1.00  0.00     0.110  C
HETATM   73 C73  LIG A   1      31.448   1.516  32.372  1.00  0.00     0.243  C
HETATM   74 O74  LIG A   1      32.125   1.999  33.321  1.00  0.00    -0.273  O
HETATM   75 C75  LIG A   1      31.722   1.849  29.878  1.00  0.00    -0.015  C
HETATM   76 C76  LIG A   1      32.137   3.327  30.000  1.00  0.00    -0.060  C
HETATM   77 C77  LIG A   1      32.222   1.240  28.543  1.00  0.00    -0.051  C
HETATM   78 C78  LIG A   1      33.742   1.260  28.359  1.00  0.00    -0.065  C
HETATM   79 N79  LIG A   1      30.014   1.442  32.478  1.00  0.00    -0.340  N
HETATM   80 C80  LIG A   1      29.267   2.290  33.409  1.00  0.00     0.131  C
HETATM   81 C81  LIG A   1      28.085   1.541  33.987  1.00  0.00     0.245  C
HETATM   82 O82  LIG A   1      28.222   0.971  35.104  1.00  0.00    -0.273  O
HETATM   83 C83  LIG A   1      28.861   3.597  32.711  1.00  0.00     0.072  C
HETATM   84 O84  LIG A   1      28.181   4.437  33.600  1.00  0.00    -0.394  O
HETATM   85 N85  LIG A   1      26.826   1.453  33.298  1.00  0.00    -0.345  N
HETATM   86 C86  LIG A   1      25.597   1.125  34.024  1.00  0.00     0.097  C
HETATM   87 C87  LIG A   1      24.444   0.927  33.083  1.00  0.00     0.240  C
HETATM   88 O88  LIG A   1      24.322  -0.174  32.483  1.00  0.00    -0.273  O
HETATM   89 N89  LIG A   1      23.487   1.976  32.873  1.00  0.00    -0.342  N
HETATM   90 C90  LIG A   1      22.256   1.781  32.096  1.00  0.00     0.112  C
HETATM   91 C91  LIG A   1      21.952   3.011  31.277  1.00  0.00     0.243  C
HETATM   92 O92  LIG A   1      22.052   4.153  31.802  1.00  0.00    -0.273  O
HETATM   93 C93  LIG A   1      21.071   1.497  33.033  1.00  0.00     0.002  C
HETATM   94 C94  LIG A   1      21.237   0.193  33.768  1.00  0.00    -0.045  C
HETATM   95 C95  LIG A   1      21.767   0.172  35.070  1.00  0.00    -0.059  C
HETATM   96 C96  LIG A   1      20.882  -1.016  33.148  1.00  0.00    -0.059  C
HETATM   97 C97  LIG A   1      21.911  -1.041  35.749  1.00  0.00    -0.062  C
HETATM   98 C98  LIG A   1      21.011  -2.224  33.838  1.00  0.00    -0.062  C
HETATM   99 C99  LIG A   1      21.525  -2.237  35.138  1.00  0.00    -0.062  C
HETATM  100 N100 LIG A   1      21.436   2.873  29.943  1.00  0.00    -0.340  N
HETATM  101 C101 LIG A   1      20.869   4.007  29.198  1.00  0.00     0.134  C
HETATM  102 C102 LIG A   1      19.953   3.527  28.092  1.00  0.00     0.245  C
HETATM  103 O103 LIG A   1      18.837   4.096  27.944  1.00  0.00    -0.273  O
HETATM  104 C104 LIG A   1      21.968   4.979  28.692  1.00  0.00     0.080  C
HETATM  105 O105 LIG A   1      21.413   5.997  27.896  1.00  0.00    -0.391  O
HETATM  106 C106 LIG A   1      23.132   4.293  27.968  1.00  0.00    -0.036  C
HETATM  107 N107 LIG A   1      20.335   2.465  27.202  1.00  0.00    -0.342  N
HETATM  108 C108 LIG A   1      19.389   1.902  26.234  1.00  0.00     0.108  C
HETATM  109 C109 LIG A   1      18.314   1.144  26.969  1.00  0.00     0.243  C
HETATM  110 O110 LIG A   1      17.103   1.434  26.765  1.00  0.00    -0.273  O
HETATM  111 C111 LIG A   1      20.123   0.972  25.240  1.00  0.00    -0.021  C
HETATM  112 C112 LIG A   1      19.231   0.502  24.062  1.00  0.00    -0.045  C
HETATM  113 C113 LIG A   1      19.104   1.593  22.988  1.00  0.00    -0.063  C
HETATM  114 C114 LIG A   1      19.796  -0.780  23.440  1.00  0.00    -0.063  C
HETATM  115 N115 LIG A   1      18.662   0.087  27.877  1.00  0.00    -0.343  N
HETATM  116 C116 LIG A   1      17.667  -0.873  28.371  1.00  0.00     0.105  C
HETATM  117 C117 LIG A   1      18.168  -1.623  29.581  1.00  0.00     0.242  C
HETATM  118 O118 LIG A   1      19.402  -1.817  29.745  1.00  0.00    -0.273  O
HETATM  119 C119 LIG A   1      17.298  -1.858  27.260  1.00  0.00    -0.036  C
HETATM  120 N120 LIG A   1      17.226  -2.182  30.509  1.00  0.00    -0.343  N
HETATM  121 C121 LIG A   1      17.644  -2.961  31.682  1.00  0.00     0.108  C
HETATM  122 C122 LIG A   1      18.131  -4.333  31.280  1.00  0.00     0.243  C
HETATM  123 O123 LIG A   1      18.823  -4.992  32.101  1.00  0.00    -0.273  O
HETATM  124 C124 LIG A   1      16.489  -3.092  32.698  1.00  0.00    -0.021  C
HETATM  125 C125 LIG A   1      16.016  -1.737  33.282  1.00  0.00    -0.045  C
HETATM  126 C126 LIG A   1      17.098  -1.073  34.152  1.00  0.00    -0.063  C
HETATM  127 C127 LIG A   1      14.741  -1.945  34.107  1.00  0.00    -0.063  C
HETATM  128 N128 LIG A   1      17.792  -4.905  30.005  1.00  0.00    -0.342  N
HETATM  129 C129 LIG A   1      18.471  -6.090  29.462  1.00  0.00     0.110  C
HETATM  130 C130 LIG A   1      18.870  -5.844  28.024  1.00  0.00     0.243  C
HETATM  131 O131 LIG A   1      18.108  -5.179  27.272  1.00  0.00    -0.273  O
HETATM  132 C132 LIG A   1      17.588  -7.353  29.646  1.00  0.00    -0.018  C
HETATM  133 C133 LIG A   1      16.258  -7.282  28.877  1.00  0.00    -0.060  C
HETATM  134 C134 LIG A   1      18.345  -8.635  29.273  1.00  0.00    -0.060  C
HETATM  135 N135 LIG A   1      20.103  -6.388  27.515  1.00  0.00    -0.343  N
HETATM  136 C136 LIG A   1      20.781  -5.946  26.286  1.00  0.00     0.108  C
HETATM  137 C137 LIG A   1      21.296  -4.540  26.453  1.00  0.00     0.243  C
HETATM  138 O138 LIG A   1      20.507  -3.629  26.819  1.00  0.00    -0.273  O
HETATM  139 C139 LIG A   1      19.880  -6.109  25.040  1.00  0.00    -0.024  C
HETATM  140 C140 LIG A   1      20.647  -5.980  23.707  1.00  0.00    -0.050  C
HETATM  141 C141 LIG A   1      20.632  -4.546  23.155  1.00  0.00    -0.041  C
HETATM  142 C142 LIG A   1      21.399  -4.455  21.834  1.00  0.00    -0.008  C
HETATM  143 N143 LIG A   1      21.399  -3.080  21.347  1.00  0.00    -0.330  N
HETATM  144 N144 LIG A   1      22.681  -4.239  26.195  1.00  0.00    -0.342  N
HETATM  145 C145 LIG A   1      23.318  -2.976  26.591  1.00  0.00     0.116  C
HETATM  146 C146 LIG A   1      23.093  -2.743  28.066  1.00  0.00     0.243  C
HETATM  147 O147 LIG A   1      22.409  -1.762  28.470  1.00  0.00    -0.273  O
HETATM  148 C148 LIG A   1      22.834  -1.813  25.693  1.00  0.00     0.056  C
HETATM  149 C149 LIG A   1      23.489  -1.821  24.339  1.00  0.00     0.220  C
HETATM  150 O150 LIG A   1      23.717  -2.909  23.747  1.00  0.00    -0.275  O
HETATM  151 N151 LIG A   1      23.799  -0.589  23.689  1.00  0.00    -0.370  N
HETATM  152 N152 LIG A   1      23.605  -3.700  29.004  1.00  0.00    -0.343  N
HETATM  153 C153 LIG A   1      23.074  -3.806  30.368  1.00  0.00     0.105  C
HETATM  154 C154 LIG A   1      23.989  -4.606  31.266  1.00  0.00     0.243  C
HETATM  155 O155 LIG A   1      24.841  -5.398  30.776  1.00  0.00    -0.273  O
HETATM  156 C156 LIG A   1      21.701  -4.473  30.327  1.00  0.00    -0.036  C
HETATM  157 N157 LIG A   1      23.817  -4.533  32.688  1.00  0.00    -0.340  N
HETATM  158 C158 LIG A   1      24.390  -5.531  33.597  1.00  0.00     0.131  C
HETATM  159 C159 LIG A   1      23.762  -6.880  33.356  1.00  0.00     0.245  C
HETATM  160 O160 LIG A   1      24.490  -7.910  33.370  1.00  0.00    -0.273  O
HETATM  161 C161 LIG A   1      24.182  -5.108  35.057  1.00  0.00     0.072  C
HETATM  162 O162 LIG A   1      24.878  -5.976  35.910  1.00  0.00    -0.394  O
HETATM  163 N163 LIG A   1      22.342  -7.000  33.156  1.00  0.00    -0.339  N
HETATM  164 C164 LIG A   1      21.688  -8.297  32.950  1.00  0.00     0.153  C
HETATM  165 C165 LIG A   1      22.118  -8.864  31.624  1.00  0.00     0.328  C
HETATM  166 O166 LIG A   1      22.586 -10.032  31.560  1.00  0.00    -0.250  O
HETATM  167 C167 LIG A   1      20.150  -8.146  33.011  1.00  0.00     0.082  C
HETATM  168 O168 LIG A   1      19.796  -7.521  34.218  1.00  0.00    -0.391  O
HETATM  169 C169 LIG A   1      19.441  -9.504  32.926  1.00  0.00    -0.036  C
HETATM  170 O170 LIG A   1      21.990  -8.105  30.466  1.00  0.00    -0.480  O
ENDROOT
TORSDOF 0
                                                                                                                                                                             
ENDMDL
