MODEL 1
REMARK VINA RESULT:     2.410      0.000      0.000
REMARK INTER + INTRA:           2.410
REMARK INTER:                   2.410
REMARK INTRA:                   0.000
REMARK UNBOUND:                 0.000
ROOT
HETATM    1 N1   LIG A   1      21.364   8.104  30.543  1.00  0.00    -0.320  N
HETATM    2 C2   LIG A   1      22.207   8.822  29.580  1.00  0.00     0.087  C
HETATM    3 C3   LIG A   1      23.394   9.449  30.272  1.00  0.00     0.237  C
HETATM    4 O4   LIG A   1      24.459   9.622  29.621  1.00  0.00    -0.273  O
HETATM    5 C5   LIG A   1      21.395   9.890  28.790  1.00  0.00    -0.020  C
HETATM    6 C6   LIG A   1      20.449   9.220  27.777  1.00  0.00    -0.061  C
HETATM    7 C7   LIG A   1      20.628  10.855  29.730  1.00  0.00    -0.052  C
HETATM    8 C8   LIG A   1      19.998  12.035  28.990  1.00  0.00    -0.065  C
HETATM    9 N9   LIG A   1      23.317   9.872  31.645  1.00  0.00    -0.341  N
HETATM   10 C10  LIG A   1      24.513  10.234  32.410  1.00  0.00     0.131  C
HETATM   11 C11  LIG A   1      25.409   9.032  32.548  1.00  0.00     0.245  C
HETATM   12 O12  LIG A   1      26.652   9.161  32.377  1.00  0.00    -0.273  O
HETATM   13 C13  LIG A   1      24.123  10.774  33.794  1.00  0.00     0.072  C
HETATM   14 O14  LIG A   1      25.251  11.254  34.476  1.00  0.00    -0.394  O
HETATM   15 N15  LIG A   1      24.854   7.752  32.886  1.00  0.00    -0.342  N
HETATM   16 C16  LIG A   1      25.631   6.514  32.789  1.00  0.00     0.108  C
HETATM   17 C17  LIG A   1      25.682   6.087  31.343  1.00  0.00     0.243  C
HETATM   18 O18  LIG A   1      24.724   5.435  30.844  1.00  0.00    -0.273  O
HETATM   19 C19  LIG A   1      25.006   5.411  33.674  1.00  0.00    -0.021  C
HETATM   20 C20  LIG A   1      24.956   5.766  35.181  1.00  0.00    -0.045  C
HETATM   21 C21  LIG A   1      23.975   4.837  35.910  1.00  0.00    -0.063  C
HETATM   22 C22  LIG A   1      26.340   5.678  35.838  1.00  0.00    -0.063  C
HETATM   23 N23  LIG A   1      26.771   6.509  30.509  1.00  0.00    -0.343  N
HETATM   24 C24  LIG A   1      26.692   6.492  29.044  1.00  0.00     0.105  C
HETATM   25 C25  LIG A   1      27.291   5.228  28.486  1.00  0.00     0.242  C
HETATM   26 O26  LIG A   1      28.120   4.575  29.177  1.00  0.00    -0.273  O
HETATM   27 C27  LIG A   1      27.421   7.709  28.472  1.00  0.00    -0.036  C
HETATM   28 N28  LIG A   1      26.961   4.813  27.147  1.00  0.00    -0.342  N
HETATM   29 C29  LIG A   1      27.668   3.778  26.372  1.00  0.00     0.110  C
HETATM   30 C30  LIG A   1      27.971   2.558  27.219  1.00  0.00     0.246  C
HETATM   31 O31  LIG A   1      29.163   2.244  27.483  1.00  0.00    -0.272  O
HETATM   32 C32  LIG A   1      28.901   4.360  25.616  1.00  0.00    -0.015  C
HETATM   33 C33  LIG A   1      28.435   5.274  24.467  1.00  0.00    -0.060  C
HETATM   34 C34  LIG A   1      29.889   5.115  26.543  1.00  0.00    -0.051  C
HETATM   35 C35  LIG A   1      31.279   5.270  25.927  1.00  0.00    -0.065  C
HETATM   36 N36  LIG A   1      26.902   1.775  27.771  1.00  0.00    -0.329  N
HETATM   37 C37  LIG A   1      26.974   1.132  29.075  1.00  0.00     0.111  C
HETATM   38 C38  LIG A   1      27.806  -0.124  29.019  1.00  0.00     0.243  C
HETATM   39 O39  LIG A   1      28.182  -0.585  27.906  1.00  0.00    -0.273  O
HETATM   40 C40  LIG A   1      25.522   0.801  29.419  1.00  0.00    -0.022  C
HETATM   41 C41  LIG A   1      24.806   0.725  28.077  1.00  0.00    -0.033  C
HETATM   42 C42  LIG A   1      25.604   1.619  27.140  1.00  0.00     0.021  C
HETATM   43 N43  LIG A   1      28.123  -0.819  30.233  1.00  0.00    -0.343  N
HETATM   44 C44  LIG A   1      28.855  -2.091  30.239  1.00  0.00     0.108  C
HETATM   45 C45  LIG A   1      28.112  -3.166  29.486  1.00  0.00     0.243  C
HETATM   46 O46  LIG A   1      26.876  -3.053  29.273  1.00  0.00    -0.273  O
HETATM   47 C47  LIG A   1      29.245  -2.532  31.673  1.00  0.00    -0.021  C
HETATM   48 C48  LIG A   1      28.133  -3.202  32.519  1.00  0.00    -0.045  C
HETATM   49 C49  LIG A   1      28.728  -3.715  33.839  1.00  0.00    -0.063  C
HETATM   50 C50  LIG A   1      26.973  -2.249  32.812  1.00  0.00    -0.063  C
HETATM   51 N51  LIG A   1      28.807  -4.347  29.060  1.00  0.00    -0.343  N
HETATM   52 C52  LIG A   1      28.913  -4.798  27.664  1.00  0.00     0.105  C
HETATM   53 C53  LIG A   1      30.281  -4.466  27.126  1.00  0.00     0.243  C
HETATM   54 O54  LIG A   1      31.022  -5.400  26.715  1.00  0.00    -0.273  O
HETATM   55 C55  LIG A   1      27.814  -4.237  26.752  1.00  0.00    -0.036  C
HETATM   56 N56  LIG A   1      30.748  -3.107  27.089  1.00  0.00    -0.340  N
HETATM   57 C57  LIG A   1      32.142  -2.743  26.804  1.00  0.00     0.131  C
HETATM   58 C58  LIG A   1      32.864  -2.331  28.075  1.00  0.00     0.245  C
HETATM   59 O59  LIG A   1      33.947  -1.688  27.988  1.00  0.00    -0.273  O
HETATM   60 C60  LIG A   1      32.151  -1.625  25.750  1.00  0.00     0.072  C
HETATM   61 O61  LIG A   1      33.455  -1.397  25.289  1.00  0.00    -0.394  O
HETATM   62 N62  LIG A   1      32.383  -2.741  29.369  1.00  0.00    -0.342  N
HETATM   63 C63  LIG A   1      33.030  -2.412  30.645  1.00  0.00     0.108  C
HETATM   64 C64  LIG A   1      33.294  -0.926  30.757  1.00  0.00     0.243  C
HETATM   65 O65  LIG A   1      34.476  -0.500  30.878  1.00  0.00    -0.273  O
HETATM   66 C66  LIG A   1      34.303  -3.264  30.852  1.00  0.00    -0.024  C
HETATM   67 C67  LIG A   1      34.020  -4.782  30.894  1.00  0.00    -0.050  C
HETATM   68 C68  LIG A   1      33.949  -5.371  32.316  1.00  0.00    -0.041  C
HETATM   69 C69  LIG A   1      32.689  -4.966  33.094  1.00  0.00    -0.008  C
HETATM   70 N70  LIG A   1      32.868  -3.668  33.738  1.00  0.00    -0.330  N
HETATM   71 N71  LIG A   1      32.194   0.000  30.733  1.00  0.00    -0.342  N
HETATM   72 C72  LIG A   1      32.361   1.448  30.897  1.00  0.00     0.110  C
HETATM   73 C73  LIG A   1      31.655   1.890  32.157  1.00  0.00     0.243  C
HETATM   74 O74  LIG A   1      32.335   2.410  33.084  1.00  0.00    -0.273  O
HETATM   75 C75  LIG A   1      31.838   2.226  29.655  1.00  0.00    -0.015  C
HETATM   76 C76  LIG A   1      32.181   3.723  29.760  1.00  0.00    -0.060  C
HETATM   77 C77  LIG A   1      32.328   1.637  28.308  1.00  0.00    -0.051  C
HETATM   78 C78  LIG A   1      33.838   1.732  28.078  1.00  0.00    -0.065  C
HETATM   79 N79  LIG A   1      30.231   1.744  32.305  1.00  0.00    -0.340  N
HETATM   80 C80  LIG A   1      29.469   2.558  33.257  1.00  0.00     0.131  C
HETATM   81 C81  LIG A   1      28.344   1.753  33.872  1.00  0.00     0.245  C
HETATM   82 O82  LIG A   1      28.543   1.195  34.986  1.00  0.00    -0.273  O
HETATM   83 C83  LIG A   1      28.978   3.840  32.568  1.00  0.00     0.072  C
HETATM   84 O84  LIG A   1      28.283   4.649  33.475  1.00  0.00    -0.394  O
HETATM   85 N85  LIG A   1      27.072   1.598  33.221  1.00  0.00    -0.345  N
HETATM   86 C86  LIG A   1      25.883   1.212  33.984  1.00  0.00     0.097  C
HETATM   87 C87  LIG A   1      24.713   0.953  33.078  1.00  0.00     0.240  C
HETATM   88 O88  LIG A   1      24.630  -0.155  32.486  1.00  0.00    -0.273  O
HETATM   89 N89  LIG A   1      23.699   1.952  32.894  1.00  0.00    -0.342  N
HETATM   90 C90  LIG A   1      22.457   1.692  32.155  1.00  0.00     0.112  C
HETATM   91 C91  LIG A   1      22.067   2.902  31.342  1.00  0.00     0.243  C
HETATM   92 O92  LIG A   1      22.125   4.050  31.861  1.00  0.00    -0.273  O
HETATM   93 C93  LIG A   1      21.316   1.352  33.127  1.00  0.00     0.002  C
HETATM   94 C94  LIG A   1      21.570   0.062  33.861  1.00  0.00    -0.045  C
HETATM   95 C95  LIG A   1      22.139   0.073  35.146  1.00  0.00    -0.059  C
HETATM   96 C96  LIG A   1      21.258  -1.166  33.255  1.00  0.00    -0.059  C
HETATM   97 C97  LIG A   1      22.364  -1.129  35.825  1.00  0.00    -0.062  C
HETATM   98 C98  LIG A   1      21.468  -2.363  33.944  1.00  0.00    -0.062  C
HETATM   99 C99  LIG A   1      22.019  -2.345  35.228  1.00  0.00    -0.062  C
HETATM  100 N100 LIG A   1      21.520   2.733  30.025  1.00  0.00    -0.340  N
HETATM  101 C101 LIG A   1      20.874   3.833  29.293  1.00  0.00     0.134  C
HETATM  102 C102 LIG A   1      19.952   3.304  28.217  1.00  0.00     0.245  C
HETATM  103 O103 LIG A   1      18.804   3.815  28.100  1.00  0.00    -0.273  O
HETATM  104 C104 LIG A   1      21.907   4.857  28.752  1.00  0.00     0.080  C
HETATM  105 O105 LIG A   1      21.278   5.843  27.971  1.00  0.00    -0.391  O
HETATM  106 C106 LIG A   1      23.083   4.227  27.996  1.00  0.00    -0.036  C
HETATM  107 N107 LIG A   1      20.359   2.258  27.319  1.00  0.00    -0.342  N
HETATM  108 C108 LIG A   1      19.415   1.644  26.381  1.00  0.00     0.108  C
HETATM  109 C109 LIG A   1      18.401   0.837  27.150  1.00  0.00     0.243  C
HETATM  110 O110 LIG A   1      17.172   1.064  26.982  1.00  0.00    -0.273  O
HETATM  111 C111 LIG A   1      20.165   0.749  25.368  1.00  0.00    -0.021  C
HETATM  112 C112 LIG A   1      19.263   0.229  24.219  1.00  0.00    -0.045  C
HETATM  113 C113 LIG A   1      19.049   1.308  23.146  1.00  0.00    -0.063  C
HETATM  114 C114 LIG A   1      19.873  -1.025  23.583  1.00  0.00    -0.063  C
HETATM  115 N115 LIG A   1      18.829  -0.198  28.050  1.00  0.00    -0.343  N
HETATM  116 C116 LIG A   1      17.899  -1.204  28.576  1.00  0.00     0.105  C
HETATM  117 C117 LIG A   1      18.473  -1.923  29.773  1.00  0.00     0.242  C
HETATM  118 O118 LIG A   1      19.720  -2.055  29.900  1.00  0.00    -0.273  O
HETATM  119 C119 LIG A   1      17.547  -2.211  27.479  1.00  0.00    -0.036  C
HETATM  120 N120 LIG A   1      17.588  -2.525  30.730  1.00  0.00    -0.343  N
HETATM  121 C121 LIG A   1      18.079  -3.277  31.892  1.00  0.00     0.108  C
HETATM  122 C122 LIG A   1      18.623  -4.624  31.479  1.00  0.00     0.243  C
HETATM  123 O123 LIG A   1      19.371  -5.244  32.281  1.00  0.00    -0.273  O
HETATM  124 C124 LIG A   1      16.963  -3.462  32.942  1.00  0.00    -0.021  C
HETATM  125 C125 LIG A   1      16.440  -2.130  33.536  1.00  0.00    -0.045  C
HETATM  126 C126 LIG A   1      17.513  -1.409  34.371  1.00  0.00    -0.063  C
HETATM  127 C127 LIG A   1      15.202  -2.398  34.400  1.00  0.00    -0.063  C
HETATM  128 N128 LIG A   1      18.275  -5.218  30.217  1.00  0.00    -0.342  N
HETATM  129 C129 LIG A   1      18.996  -6.370  29.657  1.00  0.00     0.110  C
HETATM  130 C130 LIG A   1      19.339  -6.111  28.206  1.00  0.00     0.243  C
HETATM  131 O131 LIG A   1      18.523  -5.488  27.476  1.00  0.00    -0.273  O
HETATM  132 C132 LIG A   1      18.183  -7.675  29.870  1.00  0.00    -0.018  C
HETATM  133 C133 LIG A   1      16.829  -7.674  29.141  1.00  0.00    -0.060  C
HETATM  134 C134 LIG A   1      18.993  -8.919  29.478  1.00  0.00    -0.060  C
HETATM  135 N135 LIG A   1      20.582  -6.594  27.662  1.00  0.00    -0.343  N
HETATM  136 C136 LIG A   1      21.201  -6.124  26.412  1.00  0.00     0.108  C
HETATM  137 C137 LIG A   1      21.649  -4.693  26.561  1.00  0.00     0.243  C
HETATM  138 O138 LIG A   1      20.827  -3.821  26.948  1.00  0.00    -0.273  O
HETATM  139 C139 LIG A   1      20.272  -6.336  25.194  1.00  0.00    -0.024  C
HETATM  140 C140 LIG A   1      20.992  -6.175  23.839  1.00  0.00    -0.050  C
HETATM  141 C141 LIG A   1      20.889  -4.746  23.284  1.00  0.00    -0.041  C
HETATM  142 C142 LIG A   1      21.611  -4.622  21.940  1.00  0.00    -0.008  C
HETATM  143 N143 LIG A   1      21.526  -3.251  21.449  1.00  0.00    -0.330  N
HETATM  144 N144 LIG A   1      23.008  -4.324  26.260  1.00  0.00    -0.342  N
HETATM  145 C145 LIG A   1      23.593  -3.028  26.633  1.00  0.00     0.116  C
HETATM  146 C146 LIG A   1      23.401  -2.801  28.114  1.00  0.00     0.243  C
HETATM  147 O147 LIG A   1      22.680  -1.854  28.535  1.00  0.00    -0.273  O
HETATM  148 C148 LIG A   1      23.025  -1.895  25.747  1.00  0.00     0.056  C
HETATM  149 C149 LIG A   1      23.639  -1.876  24.375  1.00  0.00     0.220  C
HETATM  150 O150 LIG A   1      23.904  -2.954  23.779  1.00  0.00    -0.275  O
HETATM  151 N151 LIG A   1      23.867  -0.632  23.712  1.00  0.00    -0.370  N
HETATM  152 N152 LIG A   1      23.987  -3.727  29.039  1.00  0.00    -0.343  N
HETATM  153 C153 LIG A   1      23.504  -3.854  30.418  1.00  0.00     0.105  C
HETATM  154 C154 LIG A   1      24.484  -4.603  31.291  1.00  0.00     0.243  C
HETATM  155 O155 LIG A   1      25.360  -5.354  30.778  1.00  0.00    -0.273  O
HETATM  156 C156 LIG A   1      22.165  -4.589  30.420  1.00  0.00    -0.036  C
HETATM  157 N157 LIG A   1      24.350  -4.534  32.717  1.00  0.00    -0.340  N
HETATM  158 C158 LIG A   1      25.000  -5.497  33.612  1.00  0.00     0.131  C
HETATM  159 C159 LIG A   1      24.433  -6.877  33.392  1.00  0.00     0.245  C
HETATM  160 O160 LIG A   1      25.212  -7.870  33.388  1.00  0.00    -0.273  O
HETATM  161 C161 LIG A   1      24.815  -5.079  35.076  1.00  0.00     0.072  C
HETATM  162 O162 LIG A   1      25.578  -5.908  35.910  1.00  0.00    -0.394  O
HETATM  163 N163 LIG A   1      23.016  -7.069  33.235  1.00  0.00    -0.339  N
HETATM  164 C164 LIG A   1      22.423  -8.398  33.052  1.00  0.00     0.153  C
HETATM  165 C165 LIG A   1      22.841  -8.948  31.716  1.00  0.00     0.328  C
HETATM  166 O166 LIG A   1      23.365 -10.092  31.641  1.00  0.00    -0.250  O
HETATM  167 C167 LIG A   1      20.881  -8.325  33.159  1.00  0.00     0.082  C
HETATM  168 O168 LIG A   1      20.532  -7.713  34.375  1.00  0.00    -0.391  O
HETATM  169 C169 LIG A   1      20.239  -9.717  33.100  1.00  0.00    -0.036  C
HETATM  170 O170 LIG A   1      22.640  -8.201  30.560  1.00  0.00    -0.480  O
ENDROOT
TORSDOF 0
                                                                                                                                                                             
ENDMDL
