MODEL 1
REMARK VINA RESULT:    -6.622      0.000      0.000
REMARK INTER + INTRA:          -6.622
REMARK INTER:                  -6.622
REMARK INTRA:                   0.000
REMARK UNBOUND:                 0.000
ROOT
HETATM    1 N1   LIG A   1     -21.479  -8.890  17.724  1.00  0.00    -0.320  N
HETATM    2 C2   LIG A   1     -21.860 -10.256  17.361  1.00  0.00     0.084  C
HETATM    3 C3   LIG A   1     -23.313 -10.293  16.945  1.00  0.00     0.237  C
HETATM    4 O4   LIG A   1     -24.211 -10.167  17.822  1.00  0.00    -0.273  O
HETATM    5 C5   LIG A   1     -21.618 -11.231  18.531  1.00  0.00    -0.027  C
HETATM    6 C6   LIG A   1     -20.129 -11.560  18.795  1.00  0.00    -0.045  C
HETATM    7 C7   LIG A   1     -20.022 -12.804  19.689  1.00  0.00    -0.063  C
HETATM    8 C8   LIG A   1     -19.382 -10.387  19.450  1.00  0.00    -0.063  C
HETATM    9 N9   LIG A   1     -23.660 -10.440  15.560  1.00  0.00    -0.343  N
HETATM   10 C10  LIG A   1     -25.034 -10.545  15.055  1.00  0.00     0.110  C
HETATM   11 C11  LIG A   1     -25.779  -9.252  15.317  1.00  0.00     0.243  C
HETATM   12 O12  LIG A   1     -25.611  -8.300  14.507  1.00  0.00    -0.273  O
HETATM   13 C13  LIG A   1     -25.739 -11.843  15.558  1.00  0.00    -0.015  C
HETATM   14 C14  LIG A   1     -27.135 -11.998  14.928  1.00  0.00    -0.060  C
HETATM   15 C15  LIG A   1     -24.883 -13.117  15.335  1.00  0.00    -0.051  C
HETATM   16 C16  LIG A   1     -24.539 -13.411  13.872  1.00  0.00    -0.065  C
HETATM   17 N17  LIG A   1     -26.616  -9.063  16.474  1.00  0.00    -0.340  N
HETATM   18 C18  LIG A   1     -27.263  -7.782  16.772  1.00  0.00     0.131  C
HETATM   19 C19  LIG A   1     -26.456  -7.030  17.800  1.00  0.00     0.245  C
HETATM   20 O20  LIG A   1     -26.039  -5.873  17.518  1.00  0.00    -0.273  O
HETATM   21 C21  LIG A   1     -28.700  -8.016  17.243  1.00  0.00     0.072  C
HETATM   22 O22  LIG A   1     -29.347  -6.790  17.443  1.00  0.00    -0.394  O
HETATM   23 N23  LIG A   1     -26.163  -7.611  19.084  1.00  0.00    -0.342  N
HETATM   24 C24  LIG A   1     -25.445  -6.878  20.134  1.00  0.00     0.116  C
HETATM   25 C25  LIG A   1     -24.503  -7.803  20.861  1.00  0.00     0.243  C
HETATM   26 O26  LIG A   1     -23.261  -7.677  20.685  1.00  0.00    -0.273  O
HETATM   27 C27  LIG A   1     -26.435  -6.224  21.116  1.00  0.00     0.056  C
HETATM   28 C28  LIG A   1     -27.168  -5.080  20.479  1.00  0.00     0.220  C
HETATM   29 O29  LIG A   1     -26.569  -3.988  20.284  1.00  0.00    -0.275  O
HETATM   30 N30  LIG A   1     -28.528  -5.222  20.073  1.00  0.00    -0.370  N
HETATM   31 N31  LIG A   1     -25.001  -8.814  21.753  1.00  0.00    -0.340  N
HETATM   32 C32  LIG A   1     -24.122  -9.539  22.680  1.00  0.00     0.134  C
HETATM   33 C33  LIG A   1     -23.694 -10.854  22.079  1.00  0.00     0.245  C
HETATM   34 O34  LIG A   1     -22.482 -11.195  22.152  1.00  0.00    -0.273  O
HETATM   35 C35  LIG A   1     -24.804  -9.745  24.050  1.00  0.00     0.080  C
HETATM   36 O36  LIG A   1     -26.000 -10.462  23.897  1.00  0.00    -0.391  O
HETATM   37 C37  LIG A   1     -25.089  -8.402  24.734  1.00  0.00    -0.036  C
HETATM   38 N38  LIG A   1     -24.651 -11.725  21.456  1.00  0.00    -0.342  N
HETATM   39 C39  LIG A   1     -24.264 -12.981  20.802  1.00  0.00     0.108  C
HETATM   40 C40  LIG A   1     -25.358 -13.449  19.871  1.00  0.00     0.243  C
HETATM   41 O41  LIG A   1     -25.071 -13.729  18.677  1.00  0.00    -0.273  O
HETATM   42 C42  LIG A   1     -23.950 -14.067  21.850  1.00  0.00    -0.024  C
HETATM   43 C43  LIG A   1     -23.186 -15.248  21.233  1.00  0.00    -0.050  C
HETATM   44 C44  LIG A   1     -22.961 -16.358  22.264  1.00  0.00    -0.041  C
HETATM   45 C45  LIG A   1     -22.165 -17.519  21.667  1.00  0.00    -0.008  C
HETATM   46 N46  LIG A   1     -22.085 -18.614  22.629  1.00  0.00    -0.330  N
HETATM   47 N47  LIG A   1     -26.701 -13.612  20.359  1.00  0.00    -0.343  N
HETATM   48 C48  LIG A   1     -27.812 -14.203  19.607  1.00  0.00     0.108  C
HETATM   49 C49  LIG A   1     -27.608 -15.691  19.494  1.00  0.00     0.243  C
HETATM   50 O50  LIG A   1     -26.787 -16.156  18.656  1.00  0.00    -0.273  O
HETATM   51 C51  LIG A   1     -28.019 -13.514  18.238  1.00  0.00    -0.024  C
HETATM   52 C52  LIG A   1     -29.440 -13.723  17.676  1.00  0.00    -0.050  C
HETATM   53 C53  LIG A   1     -30.497 -12.787  18.294  1.00  0.00    -0.041  C
HETATM   54 C54  LIG A   1     -30.393 -11.351  17.767  1.00  0.00    -0.008  C
HETATM   55 N55  LIG A   1     -31.480 -10.540  18.307  1.00  0.00    -0.330  N
HETATM   56 N56  LIG A   1     -28.283 -16.574  20.403  1.00  0.00    -0.342  N
HETATM   57 C57  LIG A   1     -27.778 -17.918  20.700  1.00  0.00     0.112  C
HETATM   58 C58  LIG A   1     -28.817 -18.713  21.455  1.00  0.00     0.243  C
HETATM   59 O59  LIG A   1     -29.182 -19.834  21.004  1.00  0.00    -0.273  O
HETATM   60 C60  LIG A   1     -26.469 -17.816  21.506  1.00  0.00     0.002  C
HETATM   61 C61  LIG A   1     -25.817 -19.161  21.695  1.00  0.00    -0.045  C
HETATM   62 C62  LIG A   1     -24.971 -19.679  20.701  1.00  0.00    -0.059  C
HETATM   63 C63  LIG A   1     -26.071 -19.921  22.849  1.00  0.00    -0.059  C
HETATM   64 C64  LIG A   1     -24.362 -20.926  20.874  1.00  0.00    -0.062  C
HETATM   65 C65  LIG A   1     -25.461 -21.169  23.018  1.00  0.00    -0.062  C
HETATM   66 C66  LIG A   1     -24.604 -21.668  22.034  1.00  0.00    -0.062  C
HETATM   67 N67  LIG A   1     -29.369 -18.217  22.684  1.00  0.00    -0.345  N
HETATM   68 C68  LIG A   1     -30.344 -18.984  23.457  1.00  0.00     0.097  C
HETATM   69 C69  LIG A   1     -31.014 -18.111  24.478  1.00  0.00     0.240  C
HETATM   70 O70  LIG A   1     -31.553 -17.034  24.103  1.00  0.00    -0.273  O
HETATM   71 N71  LIG A   1     -31.072 -18.511  25.857  1.00  0.00    -0.341  N
HETATM   72 C72  LIG A   1     -31.587 -17.635  26.913  1.00  0.00     0.134  C
HETATM   73 C73  LIG A   1     -30.419 -17.086  27.699  1.00  0.00     0.245  C
HETATM   74 O74  LIG A   1     -29.893 -16.015  27.299  1.00  0.00    -0.273  O
HETATM   75 C75  LIG A   1     -32.646 -18.382  27.756  1.00  0.00     0.080  C
HETATM   76 O76  LIG A   1     -33.685 -18.798  26.905  1.00  0.00    -0.391  O
HETATM   77 C77  LIG A   1     -33.231 -17.484  28.856  1.00  0.00    -0.036  C
HETATM   78 N78  LIG A   1     -29.857 -17.775  28.833  1.00  0.00    -0.343  N
HETATM   79 C79  LIG A   1     -28.655 -17.315  29.545  1.00  0.00     0.105  C
HETATM   80 C80  LIG A   1     -28.810 -15.892  30.043  1.00  0.00     0.242  C
HETATM   81 O81  LIG A   1     -29.962 -15.392  30.163  1.00  0.00    -0.273  O
HETATM   82 C82  LIG A   1     -27.428 -17.474  28.638  1.00  0.00    -0.036  C
HETATM   83 N83  LIG A   1     -27.661 -15.130  30.446  1.00  0.00    -0.342  N
HETATM   84 C84  LIG A   1     -27.644 -13.663  30.439  1.00  0.00     0.110  C
HETATM   85 C85  LIG A   1     -26.867 -13.190  29.235  1.00  0.00     0.243  C
HETATM   86 O86  LIG A   1     -27.419 -12.405  28.418  1.00  0.00    -0.273  O
HETATM   87 C87  LIG A   1     -27.046 -13.116  31.768  1.00  0.00    -0.015  C
HETATM   88 C88  LIG A   1     -26.998 -11.574  31.753  1.00  0.00    -0.060  C
HETATM   89 C89  LIG A   1     -27.868 -13.627  32.980  1.00  0.00    -0.051  C
HETATM   90 C90  LIG A   1     -27.216 -13.307  34.327  1.00  0.00    -0.065  C
HETATM   91 N91  LIG A   1     -25.504 -13.593  29.034  1.00  0.00    -0.343  N
HETATM   92 C92  LIG A   1     -24.686 -13.061  27.938  1.00  0.00     0.105  C
HETATM   93 C93  LIG A   1     -25.049 -13.723  26.637  1.00  0.00     0.243  C
HETATM   94 O94  LIG A   1     -25.147 -13.019  25.597  1.00  0.00    -0.273  O
HETATM   95 C95  LIG A   1     -23.200 -13.274  28.229  1.00  0.00    -0.036  C
HETATM   96 N96  LIG A   1     -25.206 -15.149  26.560  1.00  0.00    -0.340  N
HETATM   97 C97  LIG A   1     -25.403 -15.853  25.289  1.00  0.00     0.131  C
HETATM   98 C98  LIG A   1     -26.868 -15.853  24.930  1.00  0.00     0.245  C
HETATM   99 O99  LIG A   1     -27.608 -16.800  25.314  1.00  0.00    -0.273  O
HETATM  100 C100 LIG A   1     -24.842 -17.280  25.384  1.00  0.00     0.072  C
HETATM  101 O101 LIG A   1     -23.462 -17.233  25.615  1.00  0.00    -0.394  O
HETATM  102 N102 LIG A   1     -27.440 -14.743  24.221  1.00  0.00    -0.342  N
HETATM  103 C103 LIG A   1     -28.826 -14.335  24.460  1.00  0.00     0.113  C
HETATM  104 C104 LIG A   1     -29.386 -13.600  23.267  1.00  0.00     0.243  C
HETATM  105 O105 LIG A   1     -30.319 -14.130  22.603  1.00  0.00    -0.273  O
HETATM  106 C106 LIG A   1     -28.889 -13.475  25.737  1.00  0.00     0.021  C
HETATM  107 C107 LIG A   1     -30.291 -13.124  26.150  1.00  0.00     0.061  C
HETATM  108 N108 LIG A   1     -31.400 -13.791  25.767  1.00  0.00    -0.242  N
HETATM  109 C109 LIG A   1     -30.627 -12.154  27.067  1.00  0.00     0.024  C
HETATM  110 C110 LIG A   1     -32.395 -13.187  26.448  1.00  0.00     0.092  C
HETATM  111 N111 LIG A   1     -31.956 -12.193  27.243  1.00  0.00    -0.351  N
HETATM  112 N112 LIG A   1     -28.899 -12.300  22.901  1.00  0.00    -0.341  N
HETATM  113 C113 LIG A   1     -29.777 -11.285  22.307  1.00  0.00     0.127  C
HETATM  114 C114 LIG A   1     -29.020 -10.427  21.325  1.00  0.00     0.326  C
HETATM  115 O115 LIG A   1     -28.091 -10.923  20.635  1.00  0.00    -0.250  O
HETATM  116 C116 LIG A   1     -30.451 -10.449  23.418  1.00  0.00    -0.020  C
HETATM  117 C117 LIG A   1     -29.455  -9.642  24.274  1.00  0.00    -0.033  C
HETATM  118 C118 LIG A   1     -30.185  -8.774  25.305  1.00  0.00     0.018  C
HETATM  119 N119 LIG A   1     -29.263  -7.820  25.921  1.00  0.00    -0.357  N
HETATM  120 C120 LIG A   1     -28.241  -8.194  26.857  1.00  0.00     0.185  C
HETATM  121 N121 LIG A   1     -28.088  -9.433  27.202  1.00  0.00    -0.270  N
HETATM  122 N122 LIG A   1     -27.393  -7.187  27.416  1.00  0.00    -0.370  N
HETATM  123 O123 LIG A   1     -29.397  -9.105  21.114  1.00  0.00    -0.480  O
ENDROOT
TORSDOF 0
                                                                                                                              
ENDMDL
MODEL 2
REMARK VINA RESULT:    -6.549      2.698      4.435
REMARK INTER + INTRA:          -6.549
REMARK INTER:                  -6.549
REMARK INTRA:                   0.000
REMARK UNBOUND:                 0.000
ROOT
HETATM    1 N1   LIG A   1     -23.258  -9.256  16.561  1.00  0.00    -0.320  N
HETATM    2 C2   LIG A   1     -24.289 -10.110  15.969  1.00  0.00     0.084  C
HETATM    3 C3   LIG A   1     -25.653  -9.696  16.471  1.00  0.00     0.237  C
HETATM    4 O4   LIG A   1     -25.980  -9.954  17.661  1.00  0.00    -0.273  O
HETATM    5 C5   LIG A   1     -24.034 -11.597  16.293  1.00  0.00    -0.027  C
HETATM    6 C6   LIG A   1     -22.855 -12.230  15.515  1.00  0.00    -0.045  C
HETATM    7 C7   LIG A   1     -22.934 -13.761  15.607  1.00  0.00    -0.063  C
HETATM    8 C8   LIG A   1     -21.492 -11.751  16.036  1.00  0.00    -0.063  C
HETATM    9 N9   LIG A   1     -26.553  -8.988  15.603  1.00  0.00    -0.343  N
HETATM   10 C10  LIG A   1     -27.918  -8.590  15.969  1.00  0.00     0.110  C
HETATM   11 C11  LIG A   1     -27.874  -7.574  17.093  1.00  0.00     0.243  C
HETATM   12 O12  LIG A   1     -27.660  -6.369  16.791  1.00  0.00    -0.273  O
HETATM   13 C13  LIG A   1     -28.836  -9.827  16.215  1.00  0.00    -0.015  C
HETATM   14 C14  LIG A   1     -30.290  -9.397  16.481  1.00  0.00    -0.060  C
HETATM   15 C15  LIG A   1     -28.765 -10.865  15.063  1.00  0.00    -0.051  C
HETATM   16 C16  LIG A   1     -29.196 -10.335  13.693  1.00  0.00    -0.065  C
HETATM   17 N17  LIG A   1     -28.012  -7.947  18.478  1.00  0.00    -0.340  N
HETATM   18 C18  LIG A   1     -27.879  -6.976  19.567  1.00  0.00     0.131  C
HETATM   19 C19  LIG A   1     -26.494  -7.057  20.157  1.00  0.00     0.245  C
HETATM   20 O20  LIG A   1     -25.780  -6.018  20.179  1.00  0.00    -0.273  O
HETATM   21 C21  LIG A   1     -28.959  -7.222  20.624  1.00  0.00     0.072  C
HETATM   22 O22  LIG A   1     -28.888  -6.241  21.621  1.00  0.00    -0.394  O
HETATM   23 N23  LIG A   1     -25.986  -8.294  20.692  1.00  0.00    -0.342  N
HETATM   24 C24  LIG A   1     -24.672  -8.391  21.340  1.00  0.00     0.116  C
HETATM   25 C25  LIG A   1     -24.004  -9.689  20.968  1.00  0.00     0.243  C
HETATM   26 O26  LIG A   1     -23.011  -9.669  20.192  1.00  0.00    -0.273  O
HETATM   27 C27  LIG A   1     -24.808  -8.264  22.869  1.00  0.00     0.056  C
HETATM   28 C28  LIG A   1     -25.178  -6.867  23.275  1.00  0.00     0.220  C
HETATM   29 O29  LIG A   1     -24.310  -5.955  23.231  1.00  0.00    -0.275  O
HETATM   30 N30  LIG A   1     -26.507  -6.557  23.689  1.00  0.00    -0.370  N
HETATM   31 N31  LIG A   1     -24.477 -10.941  21.492  1.00  0.00    -0.340  N
HETATM   32 C32  LIG A   1     -23.697 -12.180  21.381  1.00  0.00     0.134  C
HETATM   33 C33  LIG A   1     -24.143 -12.977  20.181  1.00  0.00     0.245  C
HETATM   34 O34  LIG A   1     -23.272 -13.472  19.416  1.00  0.00    -0.273  O
HETATM   35 C35  LIG A   1     -23.789 -13.017  22.675  1.00  0.00     0.080  C
HETATM   36 O36  LIG A   1     -25.126 -13.340  22.952  1.00  0.00    -0.391  O
HETATM   37 C37  LIG A   1     -23.182 -12.264  23.865  1.00  0.00    -0.036  C
HETATM   38 N38  LIG A   1     -25.538 -13.198  19.921  1.00  0.00    -0.342  N
HETATM   39 C39  LIG A   1     -26.015 -13.911  18.730  1.00  0.00     0.108  C
HETATM   40 C40  LIG A   1     -27.475 -13.611  18.486  1.00  0.00     0.243  C
HETATM   41 O41  LIG A   1     -27.838 -13.211  17.347  1.00  0.00    -0.273  O
HETATM   42 C42  LIG A   1     -25.797 -15.430  18.881  1.00  0.00    -0.024  C
HETATM   43 C43  LIG A   1     -25.920 -16.157  17.534  1.00  0.00    -0.050  C
HETATM   44 C44  LIG A   1     -25.791 -17.672  17.712  1.00  0.00    -0.041  C
HETATM   45 C45  LIG A   1     -25.872 -18.401  16.370  1.00  0.00    -0.008  C
HETATM   46 N46  LIG A   1     -25.882 -19.844  16.586  1.00  0.00    -0.330  N
HETATM   47 N47  LIG A   1     -28.441 -13.821  19.530  1.00  0.00    -0.343  N
HETATM   48 C48  LIG A   1     -29.895 -13.719  19.375  1.00  0.00     0.108  C
HETATM   49 C49  LIG A   1     -30.401 -14.898  18.586  1.00  0.00     0.243  C
HETATM   50 O50  LIG A   1     -30.265 -14.927  17.332  1.00  0.00    -0.273  O
HETATM   51 C51  LIG A   1     -30.322 -12.360  18.774  1.00  0.00    -0.024  C
HETATM   52 C52  LIG A   1     -31.791 -12.008  19.083  1.00  0.00    -0.050  C
HETATM   53 C53  LIG A   1     -32.009 -11.438  20.498  1.00  0.00    -0.041  C
HETATM   54 C54  LIG A   1     -31.531  -9.986  20.629  1.00  0.00    -0.008  C
HETATM   55 N55  LIG A   1     -31.858  -9.470  21.955  1.00  0.00    -0.330  N
HETATM   56 N56  LIG A   1     -30.957 -16.030  19.273  1.00  0.00    -0.342  N
HETATM   57 C57  LIG A   1     -30.994 -17.365  18.670  1.00  0.00     0.112  C
HETATM   58 C58  LIG A   1     -31.872 -18.285  19.485  1.00  0.00     0.243  C
HETATM   59 O59  LIG A   1     -32.822 -18.892  18.918  1.00  0.00    -0.273  O
HETATM   60 C60  LIG A   1     -29.563 -17.925  18.557  1.00  0.00     0.002  C
HETATM   61 C61  LIG A   1     -29.524 -19.222  17.792  1.00  0.00    -0.045  C
HETATM   62 C62  LIG A   1     -29.452 -19.210  16.389  1.00  0.00    -0.059  C
HETATM   63 C63  LIG A   1     -29.588 -20.452  18.468  1.00  0.00    -0.059  C
HETATM   64 C64  LIG A   1     -29.412 -20.412  15.676  1.00  0.00    -0.062  C
HETATM   65 C65  LIG A   1     -29.550 -21.652  17.751  1.00  0.00    -0.062  C
HETATM   66 C66  LIG A   1     -29.457 -21.632  16.358  1.00  0.00    -0.062  C
HETATM   67 N67  LIG A   1     -31.620 -18.489  20.883  1.00  0.00    -0.345  N
HETATM   68 C68  LIG A   1     -32.427 -19.406  21.687  1.00  0.00     0.097  C
HETATM   69 C69  LIG A   1     -32.195 -19.169  23.151  1.00  0.00     0.240  C
HETATM   70 O70  LIG A   1     -32.330 -18.003  23.611  1.00  0.00    -0.273  O
HETATM   71 N71  LIG A   1     -31.858 -20.260  24.024  1.00  0.00    -0.341  N
HETATM   72 C72  LIG A   1     -31.485 -20.064  25.427  1.00  0.00     0.134  C
HETATM   73 C73  LIG A   1     -29.989 -20.227  25.558  1.00  0.00     0.245  C
HETATM   74 O74  LIG A   1     -29.270 -19.207  25.397  1.00  0.00    -0.273  O
HETATM   75 C75  LIG A   1     -32.324 -20.991  26.337  1.00  0.00     0.080  C
HETATM   76 O76  LIG A   1     -33.685 -20.701  26.139  1.00  0.00    -0.391  O
HETATM   77 C77  LIG A   1     -31.980 -20.791  27.820  1.00  0.00    -0.036  C
HETATM   78 N78  LIG A   1     -29.367 -21.507  25.789  1.00  0.00    -0.343  N
HETATM   79 C79  LIG A   1     -27.910 -21.707  25.811  1.00  0.00     0.105  C
HETATM   80 C80  LIG A   1     -27.237 -20.803  26.826  1.00  0.00     0.242  C
HETATM   81 O81  LIG A   1     -27.916 -20.296  27.760  1.00  0.00    -0.273  O
HETATM   82 C82  LIG A   1     -27.342 -21.507  24.401  1.00  0.00    -0.036  C
HETATM   83 N83  LIG A   1     -25.820 -20.576  26.774  1.00  0.00    -0.342  N
HETATM   84 C84  LIG A   1     -25.191 -19.379  27.344  1.00  0.00     0.110  C
HETATM   85 C85  LIG A   1     -24.842 -18.431  26.222  1.00  0.00     0.243  C
HETATM   86 O86  LIG A   1     -25.287 -17.253  26.253  1.00  0.00    -0.273  O
HETATM   87 C87  LIG A   1     -23.941 -19.766  28.187  1.00  0.00    -0.015  C
HETATM   88 C88  LIG A   1     -23.259 -18.508  28.763  1.00  0.00    -0.060  C
HETATM   89 C89  LIG A   1     -24.340 -20.742  29.325  1.00  0.00    -0.051  C
HETATM   90 C90  LIG A   1     -23.135 -21.332  30.061  1.00  0.00    -0.065  C
HETATM   91 N91  LIG A   1     -23.983 -18.846  25.149  1.00  0.00    -0.343  N
HETATM   92 C92  LIG A   1     -23.533 -17.917  24.106  1.00  0.00     0.105  C
HETATM   93 C93  LIG A   1     -24.628 -17.674  23.104  1.00  0.00     0.243  C
HETATM   94 O94  LIG A   1     -24.828 -16.502  22.686  1.00  0.00    -0.273  O
HETATM   95 C95  LIG A   1     -22.296 -18.470  23.396  1.00  0.00    -0.036  C
HETATM   96 N96  LIG A   1     -25.387 -18.770  22.570  1.00  0.00    -0.340  N
HETATM   97 C97  LIG A   1     -26.353 -18.602  21.479  1.00  0.00     0.131  C
HETATM   98 C98  LIG A   1     -27.689 -18.187  22.043  1.00  0.00     0.245  C
HETATM   99 O99  LIG A   1     -28.536 -19.066  22.362  1.00  0.00    -0.273  O
HETATM  100 C100 LIG A   1     -26.460 -19.900  20.665  1.00  0.00     0.072  C
HETATM  101 O101 LIG A   1     -25.225 -20.192  20.074  1.00  0.00    -0.394  O
HETATM  102 N102 LIG A   1     -27.971 -16.802  22.293  1.00  0.00    -0.342  N
HETATM  103 C103 LIG A   1     -28.831 -16.401  23.409  1.00  0.00     0.113  C
HETATM  104 C104 LIG A   1     -29.456 -15.051  23.153  1.00  0.00     0.243  C
HETATM  105 O105 LIG A   1     -30.703 -14.975  22.985  1.00  0.00    -0.273  O
HETATM  106 C106 LIG A   1     -28.008 -16.408  24.712  1.00  0.00     0.021  C
HETATM  107 C107 LIG A   1     -28.836 -16.148  25.940  1.00  0.00     0.061  C
HETATM  108 N108 LIG A   1     -30.173 -16.316  26.021  1.00  0.00    -0.242  N
HETATM  109 C109 LIG A   1     -28.333 -15.824  27.180  1.00  0.00     0.024  C
HETATM  110 C110 LIG A   1     -30.455 -16.060  27.315  1.00  0.00     0.092  C
HETATM  111 N111 LIG A   1     -29.360 -15.760  28.039  1.00  0.00    -0.351  N
HETATM  112 N112 LIG A   1     -28.658 -13.858  23.131  1.00  0.00    -0.341  N
HETATM  113 C113 LIG A   1     -29.182 -12.569  23.598  1.00  0.00     0.127  C
HETATM  114 C114 LIG A   1     -28.599 -11.430  22.802  1.00  0.00     0.326  C
HETATM  115 O115 LIG A   1     -28.328 -11.582  21.582  1.00  0.00    -0.250  O
HETATM  116 C116 LIG A   1     -28.934 -12.413  25.116  1.00  0.00    -0.020  C
HETATM  117 C117 LIG A   1     -27.441 -12.380  25.496  1.00  0.00    -0.033  C
HETATM  118 C118 LIG A   1     -27.256 -12.144  26.999  1.00  0.00     0.018  C
HETATM  119 N119 LIG A   1     -25.857 -11.847  27.306  1.00  0.00    -0.357  N
HETATM  120 C120 LIG A   1     -24.808 -12.826  27.261  1.00  0.00     0.185  C
HETATM  121 N121 LIG A   1     -25.067 -14.052  26.932  1.00  0.00    -0.270  N
HETATM  122 N122 LIG A   1     -23.470 -12.442  27.589  1.00  0.00    -0.370  N
HETATM  123 O123 LIG A   1     -28.433 -10.179  23.388  1.00  0.00    -0.480  O
ENDROOT
TORSDOF 0
                                                                                                                              
ENDMDL
