MODEL 1
REMARK VINA RESULT:    -6.957      0.000      0.000
REMARK INTER + INTRA:          -6.957
REMARK INTER:                  -6.957
REMARK INTRA:                   0.000
REMARK UNBOUND:                 0.000
ROOT
HETATM    1 N1   LIG A   1     -24.339 -21.153  19.353  1.00  0.00    -0.320  N
HETATM    2 C2   LIG A   1     -24.949 -20.792  20.634  1.00  0.00     0.084  C
HETATM    3 C3   LIG A   1     -26.454 -20.752  20.496  1.00  0.00     0.237  C
HETATM    4 O4   LIG A   1     -26.993 -19.807  19.857  1.00  0.00    -0.273  O
HETATM    5 C5   LIG A   1     -24.426 -19.430  21.135  1.00  0.00    -0.027  C
HETATM    6 C6   LIG A   1     -22.974 -19.457  21.668  1.00  0.00    -0.045  C
HETATM    7 C7   LIG A   1     -22.695 -18.186  22.483  1.00  0.00    -0.063  C
HETATM    8 C8   LIG A   1     -21.942 -19.580  20.535  1.00  0.00    -0.063  C
HETATM    9 N9   LIG A   1     -27.255 -21.800  21.063  1.00  0.00    -0.343  N
HETATM   10 C10  LIG A   1     -28.723 -21.830  21.036  1.00  0.00     0.110  C
HETATM   11 C11  LIG A   1     -29.209 -21.950  19.606  1.00  0.00     0.243  C
HETATM   12 O12  LIG A   1     -29.229 -23.098  19.084  1.00  0.00    -0.273  O
HETATM   13 C13  LIG A   1     -29.341 -20.660  21.862  1.00  0.00    -0.015  C
HETATM   14 C14  LIG A   1     -30.876 -20.772  21.923  1.00  0.00    -0.060  C
HETATM   15 C15  LIG A   1     -28.735 -20.543  23.286  1.00  0.00    -0.051  C
HETATM   16 C16  LIG A   1     -28.929 -21.779  24.169  1.00  0.00    -0.065  C
HETATM   17 N17  LIG A   1     -29.591 -20.805  18.820  1.00  0.00    -0.340  N
HETATM   18 C18  LIG A   1     -29.974 -20.915  17.411  1.00  0.00     0.131  C
HETATM   19 C19  LIG A   1     -28.803 -20.553  16.533  1.00  0.00     0.245  C
HETATM   20 O20  LIG A   1     -28.393 -21.395  15.687  1.00  0.00    -0.273  O
HETATM   21 C21  LIG A   1     -31.188 -20.027  17.126  1.00  0.00     0.072  C
HETATM   22 O22  LIG A   1     -31.610 -20.198  15.801  1.00  0.00    -0.394  O
HETATM   23 N23  LIG A   1     -28.157 -19.272  16.648  1.00  0.00    -0.342  N
HETATM   24 C24  LIG A   1     -27.062 -18.860  15.760  1.00  0.00     0.116  C
HETATM   25 C25  LIG A   1     -26.025 -18.089  16.536  1.00  0.00     0.243  C
HETATM   26 O26  LIG A   1     -24.907 -18.624  16.766  1.00  0.00    -0.273  O
HETATM   27 C27  LIG A   1     -27.600 -18.022  14.585  1.00  0.00     0.056  C
HETATM   28 C28  LIG A   1     -28.389 -18.862  13.624  1.00  0.00     0.220  C
HETATM   29 O29  LIG A   1     -27.788 -19.650  12.847  1.00  0.00    -0.275  O
HETATM   30 N30  LIG A   1     -29.814 -18.795  13.599  1.00  0.00    -0.370  N
HETATM   31 N31  LIG A   1     -26.293 -16.758  17.006  1.00  0.00    -0.340  N
HETATM   32 C32  LIG A   1     -25.230 -15.880  17.515  1.00  0.00     0.134  C
HETATM   33 C33  LIG A   1     -25.155 -15.961  19.019  1.00  0.00     0.245  C
HETATM   34 O34  LIG A   1     -24.028 -16.075  19.571  1.00  0.00    -0.273  O
HETATM   35 C35  LIG A   1     -25.433 -14.425  17.041  1.00  0.00     0.080  C
HETATM   36 O36  LIG A   1     -26.675 -13.939  17.476  1.00  0.00    -0.391  O
HETATM   37 C37  LIG A   1     -25.343 -14.322  15.514  1.00  0.00    -0.036  C
HETATM   38 N38  LIG A   1     -26.344 -15.882  19.820  1.00  0.00    -0.342  N
HETATM   39 C39  LIG A   1     -26.321 -16.022  21.281  1.00  0.00     0.108  C
HETATM   40 C40  LIG A   1     -27.702 -16.343  21.802  1.00  0.00     0.243  C
HETATM   41 O41  LIG A   1     -27.858 -17.337  22.560  1.00  0.00    -0.273  O
HETATM   42 C42  LIG A   1     -25.782 -14.739  21.944  1.00  0.00    -0.024  C
HETATM   43 C43  LIG A   1     -25.385 -14.979  23.407  1.00  0.00    -0.050  C
HETATM   44 C44  LIG A   1     -24.937 -13.677  24.078  1.00  0.00    -0.041  C
HETATM   45 C45  LIG A   1     -24.502 -13.915  25.524  1.00  0.00    -0.008  C
HETATM   46 N46  LIG A   1     -24.211 -12.641  26.173  1.00  0.00    -0.330  N
HETATM   47 N47  LIG A   1     -28.815 -15.496  21.468  1.00  0.00    -0.343  N
HETATM   48 C48  LIG A   1     -30.165 -15.605  22.030  1.00  0.00     0.108  C
HETATM   49 C49  LIG A   1     -30.154 -15.130  23.459  1.00  0.00     0.243  C
HETATM   50 O50  LIG A   1     -29.708 -15.879  24.372  1.00  0.00    -0.273  O
HETATM   51 C51  LIG A   1     -30.748 -17.027  21.868  1.00  0.00    -0.024  C
HETATM   52 C52  LIG A   1     -32.289 -17.051  21.946  1.00  0.00    -0.050  C
HETATM   53 C53  LIG A   1     -32.984 -16.629  20.637  1.00  0.00    -0.041  C
HETATM   54 C54  LIG A   1     -32.923 -17.719  19.559  1.00  0.00    -0.008  C
HETATM   55 N55  LIG A   1     -33.685 -17.305  18.386  1.00  0.00    -0.330  N
HETATM   56 N56  LIG A   1     -30.569 -13.790  23.768  1.00  0.00    -0.342  N
HETATM   57 C57  LIG A   1     -30.127 -13.100  24.983  1.00  0.00     0.112  C
HETATM   58 C58  LIG A   1     -30.927 -11.836  25.189  1.00  0.00     0.243  C
HETATM   59 O59  LIG A   1     -31.528 -11.658  26.284  1.00  0.00    -0.273  O
HETATM   60 C60  LIG A   1     -28.621 -12.791  24.887  1.00  0.00     0.002  C
HETATM   61 C61  LIG A   1     -28.076 -12.233  26.176  1.00  0.00    -0.045  C
HETATM   62 C62  LIG A   1     -27.664 -13.101  27.200  1.00  0.00    -0.059  C
HETATM   63 C63  LIG A   1     -28.003 -10.844  26.378  1.00  0.00    -0.059  C
HETATM   64 C64  LIG A   1     -27.155 -12.586  28.397  1.00  0.00    -0.062  C
HETATM   65 C65  LIG A   1     -27.496 -10.334  27.577  1.00  0.00    -0.062  C
HETATM   66 C66  LIG A   1     -27.067 -11.204  28.583  1.00  0.00    -0.062  C
HETATM   67 N67  LIG A   1     -30.987 -10.833  24.163  1.00  0.00    -0.345  N
HETATM   68 C68  LIG A   1     -31.718  -9.581  24.351  1.00  0.00     0.097  C
HETATM   69 C69  LIG A   1     -31.922  -8.886  23.036  1.00  0.00     0.240  C
HETATM   70 O70  LIG A   1     -32.448  -9.522  22.083  1.00  0.00    -0.273  O
HETATM   71 N71  LIG A   1     -31.556  -7.505  22.874  1.00  0.00    -0.341  N
HETATM   72 C72  LIG A   1     -31.602  -6.822  21.579  1.00  0.00     0.134  C
HETATM   73 C73  LIG A   1     -30.192  -6.681  21.054  1.00  0.00     0.245  C
HETATM   74 O74  LIG A   1     -29.728  -7.618  20.355  1.00  0.00    -0.273  O
HETATM   75 C75  LIG A   1     -32.387  -5.496  21.703  1.00  0.00     0.080  C
HETATM   76 O76  LIG A   1     -33.685  -5.784  22.160  1.00  0.00    -0.391  O
HETATM   77 C77  LIG A   1     -32.482  -4.765  20.356  1.00  0.00    -0.036  C
HETATM   78 N78  LIG A   1     -29.354  -5.555  21.383  1.00  0.00    -0.343  N
HETATM   79 C79  LIG A   1     -27.945  -5.450  20.974  1.00  0.00     0.105  C
HETATM   80 C80  LIG A   1     -27.787  -5.577  19.472  1.00  0.00     0.242  C
HETATM   81 O81  LIG A   1     -28.779  -5.377  18.719  1.00  0.00    -0.273  O
HETATM   82 C82  LIG A   1     -27.112  -6.494  21.728  1.00  0.00    -0.036  C
HETATM   83 N83  LIG A   1     -26.501  -5.853  18.894  1.00  0.00    -0.342  N
HETATM   84 C84  LIG A   1     -26.346  -6.480  17.577  1.00  0.00     0.110  C
HETATM   85 C85  LIG A   1     -25.973  -7.931  17.769  1.00  0.00     0.243  C
HETATM   86 O86  LIG A   1     -26.687  -8.824  17.240  1.00  0.00    -0.273  O
HETATM   87 C87  LIG A   1     -25.290  -5.717  16.726  1.00  0.00    -0.015  C
HETATM   88 C88  LIG A   1     -25.101  -6.392  15.352  1.00  0.00    -0.060  C
HETATM   89 C89  LIG A   1     -25.706  -4.233  16.555  1.00  0.00    -0.051  C
HETATM   90 C90  LIG A   1     -24.615  -3.371  15.915  1.00  0.00    -0.065  C
HETATM   91 N91  LIG A   1     -24.800  -8.295  18.512  1.00  0.00    -0.343  N
HETATM   92 C92  LIG A   1     -24.347  -9.687  18.621  1.00  0.00     0.105  C
HETATM   93 C93  LIG A   1     -25.185 -10.441  19.618  1.00  0.00     0.243  C
HETATM   94 O94  LIG A   1     -25.555 -11.613  19.345  1.00  0.00    -0.273  O
HETATM   95 C95  LIG A   1     -22.876  -9.738  19.038  1.00  0.00    -0.036  C
HETATM   96 N96  LIG A   1     -25.495  -9.865  20.897  1.00  0.00    -0.340  N
HETATM   97 C97  LIG A   1     -26.172 -10.619  21.957  1.00  0.00     0.131  C
HETATM   98 C98  LIG A   1     -27.665 -10.542  21.762  1.00  0.00     0.245  C
HETATM   99 O99  LIG A   1     -28.323  -9.614  22.308  1.00  0.00    -0.273  O
HETATM  100 C100 LIG A   1     -25.751 -10.083  23.335  1.00  0.00     0.072  C
HETATM  101 O101 LIG A   1     -24.376 -10.269  23.516  1.00  0.00    -0.394  O
HETATM  102 N102 LIG A   1     -28.331 -11.474  20.895  1.00  0.00    -0.342  N
HETATM  103 C103 LIG A   1     -29.512 -11.071  20.128  1.00  0.00     0.113  C
HETATM  104 C104 LIG A   1     -30.364 -12.267  19.781  1.00  0.00     0.243  C
HETATM  105 O105 LIG A   1     -31.511 -12.373  20.295  1.00  0.00    -0.273  O
HETATM  106 C106 LIG A   1     -29.062 -10.308  18.866  1.00  0.00     0.021  C
HETATM  107 C107 LIG A   1     -30.206  -9.728  18.083  1.00  0.00     0.061  C
HETATM  108 N108 LIG A   1     -31.438  -9.485  18.578  1.00  0.00    -0.242  N
HETATM  109 C109 LIG A   1     -30.122  -9.251  16.794  1.00  0.00     0.024  C
HETATM  110 C110 LIG A   1     -32.086  -8.886  17.558  1.00  0.00     0.092  C
HETATM  111 N111 LIG A   1     -31.313  -8.730  16.467  1.00  0.00    -0.351  N
HETATM  112 N112 LIG A   1     -29.903 -13.261  18.852  1.00  0.00    -0.341  N
HETATM  113 C113 LIG A   1     -30.826 -13.972  17.960  1.00  0.00     0.127  C
HETATM  114 C114 LIG A   1     -30.361 -15.385  17.719  1.00  0.00     0.326  C
HETATM  115 O115 LIG A   1     -29.767 -16.021  18.629  1.00  0.00    -0.250  O
HETATM  116 C116 LIG A   1     -31.008 -13.182  16.644  1.00  0.00    -0.020  C
HETATM  117 C117 LIG A   1     -29.711 -13.043  15.824  1.00  0.00    -0.033  C
HETATM  118 C118 LIG A   1     -29.968 -12.322  14.496  1.00  0.00     0.018  C
HETATM  119 N119 LIG A   1     -28.806 -12.433  13.615  1.00  0.00    -0.357  N
HETATM  120 C120 LIG A   1     -27.572 -11.734  13.835  1.00  0.00     0.185  C
HETATM  121 N121 LIG A   1     -27.433 -10.953  14.859  1.00  0.00    -0.270  N
HETATM  122 N122 LIG A   1     -26.493 -11.898  12.911  1.00  0.00    -0.370  N
HETATM  123 O123 LIG A   1     -30.657 -16.025  16.520  1.00  0.00    -0.480  O
ENDROOT
TORSDOF 0
                                                                                                                              
ENDMDL
MODEL 2
REMARK VINA RESULT:    -6.582      2.962     10.014
REMARK INTER + INTRA:          -6.582
REMARK INTER:                  -6.582
REMARK INTRA:                   0.000
REMARK UNBOUND:                 0.000
ROOT
HETATM    1 N1   LIG A   1     -26.102  -9.597  13.457  1.00  0.00    -0.320  N
HETATM    2 C2   LIG A   1     -26.712 -10.919  13.617  1.00  0.00     0.084  C
HETATM    3 C3   LIG A   1     -28.102 -10.779  14.193  1.00  0.00     0.237  C
HETATM    4 O4   LIG A   1     -28.241 -10.456  15.405  1.00  0.00    -0.273  O
HETATM    5 C5   LIG A   1     -25.850 -11.823  14.523  1.00  0.00    -0.027  C
HETATM    6 C6   LIG A   1     -24.550 -12.341  13.863  1.00  0.00    -0.045  C
HETATM    7 C7   LIG A   1     -23.984 -13.512  14.678  1.00  0.00    -0.063  C
HETATM    8 C8   LIG A   1     -23.486 -11.240  13.734  1.00  0.00    -0.063  C
HETATM    9 N9   LIG A   1     -29.250 -10.984  13.355  1.00  0.00    -0.343  N
HETATM   10 C10  LIG A   1     -30.640 -10.930  13.825  1.00  0.00     0.110  C
HETATM   11 C11  LIG A   1     -30.972  -9.526  14.288  1.00  0.00     0.243  C
HETATM   12 O12  LIG A   1     -31.290  -8.675  13.414  1.00  0.00    -0.273  O
HETATM   13 C13  LIG A   1     -30.952 -12.068  14.845  1.00  0.00    -0.015  C
HETATM   14 C14  LIG A   1     -32.442 -12.070  15.237  1.00  0.00    -0.060  C
HETATM   15 C15  LIG A   1     -30.508 -13.466  14.339  1.00  0.00    -0.051  C
HETATM   16 C16  LIG A   1     -31.178 -13.922  13.040  1.00  0.00    -0.065  C
HETATM   17 N17  LIG A   1     -30.884  -9.127  15.670  1.00  0.00    -0.340  N
HETATM   18 C18  LIG A   1     -31.118  -7.747  16.103  1.00  0.00     0.131  C
HETATM   19 C19  LIG A   1     -29.800  -7.040  16.290  1.00  0.00     0.245  C
HETATM   20 O20  LIG A   1     -29.579  -5.981  15.639  1.00  0.00    -0.273  O
HETATM   21 C21  LIG A   1     -31.952  -7.734  17.386  1.00  0.00     0.072  C
HETATM   22 O22  LIG A   1     -32.252  -6.415  17.752  1.00  0.00    -0.394  O
HETATM   23 N23  LIG A   1     -28.803  -7.553  17.192  1.00  0.00    -0.342  N
HETATM   24 C24  LIG A   1     -27.540  -6.851  17.453  1.00  0.00     0.116  C
HETATM   25 C25  LIG A   1     -26.411  -7.841  17.578  1.00  0.00     0.243  C
HETATM   26 O26  LIG A   1     -25.550  -7.909  16.660  1.00  0.00    -0.273  O
HETATM   27 C27  LIG A   1     -27.650  -5.985  18.722  1.00  0.00     0.056  C
HETATM   28 C28  LIG A   1     -28.547  -4.801  18.505  1.00  0.00     0.220  C
HETATM   29 O29  LIG A   1     -28.137  -3.826  17.820  1.00  0.00    -0.275  O
HETATM   30 N30  LIG A   1     -29.867  -4.778  19.047  1.00  0.00    -0.370  N
HETATM   31 N31  LIG A   1     -26.301  -8.696  18.728  1.00  0.00    -0.340  N
HETATM   32 C32  LIG A   1     -25.083  -9.464  19.017  1.00  0.00     0.134  C
HETATM   33 C33  LIG A   1     -25.210 -10.871  18.488  1.00  0.00     0.245  C
HETATM   34 O34  LIG A   1     -24.246 -11.376  17.852  1.00  0.00    -0.273  O
HETATM   35 C35  LIG A   1     -24.765  -9.461  20.528  1.00  0.00     0.080  C
HETATM   36 O36  LIG A   1     -25.835 -10.007  21.253  1.00  0.00    -0.391  O
HETATM   37 C37  LIG A   1     -24.472  -8.041  21.028  1.00  0.00    -0.036  C
HETATM   38 N38  LIG A   1     -26.399 -11.642  18.725  1.00  0.00    -0.342  N
HETATM   39 C39  LIG A   1     -26.589 -12.988  18.172  1.00  0.00     0.108  C
HETATM   40 C40  LIG A   1     -28.051 -13.366  18.195  1.00  0.00     0.243  C
HETATM   41 O41  LIG A   1     -28.595 -13.778  17.136  1.00  0.00    -0.273  O
HETATM   42 C42  LIG A   1     -25.755 -14.021  18.956  1.00  0.00    -0.024  C
HETATM   43 C43  LIG A   1     -25.624 -15.345  18.188  1.00  0.00    -0.050  C
HETATM   44 C44  LIG A   1     -24.872 -16.390  19.017  1.00  0.00    -0.041  C
HETATM   45 C45  LIG A   1     -24.702 -17.698  18.243  1.00  0.00    -0.008  C
HETATM   46 N46  LIG A   1     -24.105 -18.713  19.105  1.00  0.00    -0.330  N
HETATM   47 N47  LIG A   1     -28.798 -13.294  19.422  1.00  0.00    -0.343  N
HETATM   48 C48  LIG A   1     -30.169 -13.777  19.612  1.00  0.00     0.108  C
HETATM   49 C49  LIG A   1     -30.175 -15.283  19.625  1.00  0.00     0.243  C
HETATM   50 O50  LIG A   1     -30.093 -15.926  18.542  1.00  0.00    -0.273  O
HETATM   51 C51  LIG A   1     -31.145 -13.176  18.574  1.00  0.00    -0.024  C
HETATM   52 C52  LIG A   1     -32.614 -13.222  19.043  1.00  0.00    -0.050  C
HETATM   53 C53  LIG A   1     -32.987 -12.097  20.028  1.00  0.00    -0.041  C
HETATM   54 C54  LIG A   1     -33.147 -10.737  19.338  1.00  0.00    -0.008  C
HETATM   55 N55  LIG A   1     -33.600  -9.738  20.301  1.00  0.00    -0.330  N
HETATM   56 N56  LIG A   1     -30.183 -15.984  20.878  1.00  0.00    -0.342  N
HETATM   57 C57  LIG A   1     -29.689 -17.359  21.002  1.00  0.00     0.112  C
HETATM   58 C58  LIG A   1     -30.072 -17.934  22.346  1.00  0.00     0.243  C
HETATM   59 O59  LIG A   1     -30.709 -19.023  22.391  1.00  0.00    -0.273  O
HETATM   60 C60  LIG A   1     -28.161 -17.383  20.806  1.00  0.00     0.002  C
HETATM   61 C61  LIG A   1     -27.622 -18.789  20.757  1.00  0.00    -0.045  C
HETATM   62 C62  LIG A   1     -27.622 -19.501  19.546  1.00  0.00    -0.059  C
HETATM   63 C63  LIG A   1     -27.142 -19.411  21.922  1.00  0.00    -0.059  C
HETATM   64 C64  LIG A   1     -27.119 -20.805  19.496  1.00  0.00    -0.062  C
HETATM   65 C65  LIG A   1     -26.642 -20.716  21.868  1.00  0.00    -0.062  C
HETATM   66 C66  LIG A   1     -26.625 -21.410  20.656  1.00  0.00    -0.062  C
HETATM   67 N67  LIG A   1     -29.697 -17.268  23.560  1.00  0.00    -0.345  N
HETATM   68 C68  LIG A   1     -30.017 -17.822  24.875  1.00  0.00     0.097  C
HETATM   69 C69  LIG A   1     -29.841 -16.784  25.944  1.00  0.00     0.240  C
HETATM   70 O70  LIG A   1     -30.427 -15.674  25.821  1.00  0.00    -0.273  O
HETATM   71 N71  LIG A   1     -29.046 -17.061  27.109  1.00  0.00    -0.341  N
HETATM   72 C72  LIG A   1     -28.727 -16.039  28.110  1.00  0.00     0.134  C
HETATM   73 C73  LIG A   1     -27.294 -15.603  27.918  1.00  0.00     0.245  C
HETATM   74 O74  LIG A   1     -27.069 -14.655  27.122  1.00  0.00    -0.273  O
HETATM   75 C75  LIG A   1     -29.067 -16.556  29.527  1.00  0.00     0.080  C
HETATM   76 O76  LIG A   1     -30.434 -16.884  29.568  1.00  0.00    -0.391  O
HETATM   77 C77  LIG A   1     -28.774 -15.499  30.601  1.00  0.00    -0.036  C
HETATM   78 N78  LIG A   1     -26.189 -16.274  28.556  1.00  0.00    -0.343  N
HETATM   79 C79  LIG A   1     -24.780 -15.937  28.299  1.00  0.00     0.105  C
HETATM   80 C80  LIG A   1     -24.499 -14.471  28.563  1.00  0.00     0.242  C
HETATM   81 O81  LIG A   1     -25.285 -13.803  29.288  1.00  0.00    -0.273  O
HETATM   82 C82  LIG A   1     -24.408 -16.343  26.867  1.00  0.00    -0.036  C
HETATM   83 N83  LIG A   1     -23.306 -13.854  28.053  1.00  0.00    -0.342  N
HETATM   84 C84  LIG A   1     -23.205 -12.409  27.815  1.00  0.00     0.110  C
HETATM   85 C85  LIG A   1     -23.329 -12.150  26.333  1.00  0.00     0.243  C
HETATM   86 O86  LIG A   1     -24.220 -11.361  25.920  1.00  0.00    -0.273  O
HETATM   87 C87  LIG A   1     -21.872 -11.851  28.394  1.00  0.00    -0.015  C
HETATM   88 C88  LIG A   1     -21.748 -10.338  28.119  1.00  0.00    -0.060  C
HETATM   89 C89  LIG A   1     -21.782 -12.140  29.915  1.00  0.00    -0.051  C
HETATM   90 C90  LIG A   1     -20.410 -11.812  30.510  1.00  0.00    -0.065  C
HETATM   91 N91  LIG A   1     -22.422 -12.760  25.402  1.00  0.00    -0.343  N
HETATM   92 C92  LIG A   1     -22.442 -12.440  23.970  1.00  0.00     0.105  C
HETATM   93 C93  LIG A   1     -23.582 -13.144  23.286  1.00  0.00     0.243  C
HETATM   94 O94  LIG A   1     -24.266 -12.518  22.434  1.00  0.00    -0.273  O
HETATM   95 C95  LIG A   1     -21.119 -12.841  23.315  1.00  0.00    -0.036  C
HETATM   96 N96  LIG A   1     -23.842 -14.534  23.540  1.00  0.00    -0.340  N
HETATM   97 C97  LIG A   1     -24.837 -15.301  22.783  1.00  0.00     0.131  C
HETATM   98 C98  LIG A   1     -26.198 -15.118  23.405  1.00  0.00     0.245  C
HETATM   99 O99  LIG A   1     -26.591 -15.915  24.301  1.00  0.00    -0.273  O
HETATM  100 C100 LIG A   1     -24.431 -16.782  22.730  1.00  0.00     0.072  C
HETATM  101 O101 LIG A   1     -23.213 -16.916  22.053  1.00  0.00    -0.394  O
HETATM  102 N102 LIG A   1     -27.018 -13.997  23.038  1.00  0.00    -0.342  N
HETATM  103 C103 LIG A   1     -27.917 -13.376  24.013  1.00  0.00     0.113  C
HETATM  104 C104 LIG A   1     -29.055 -12.665  23.321  1.00  0.00     0.243  C
HETATM  105 O105 LIG A   1     -30.228 -13.106  23.460  1.00  0.00    -0.273  O
HETATM  106 C106 LIG A   1     -27.110 -12.418  24.910  1.00  0.00     0.021  C
HETATM  107 C107 LIG A   1     -27.917 -11.836  26.037  1.00  0.00     0.061  C
HETATM  108 N108 LIG A   1     -29.060 -12.365  26.523  1.00  0.00    -0.242  N
HETATM  109 C109 LIG A   1     -27.541 -10.759  26.807  1.00  0.00     0.024  C
HETATM  110 C110 LIG A   1     -29.367 -11.571  27.570  1.00  0.00     0.092  C
HETATM  111 N111 LIG A   1     -28.464 -10.592  27.765  1.00  0.00    -0.351  N
HETATM  112 N112 LIG A   1     -28.824 -11.482  22.541  1.00  0.00    -0.341  N
HETATM  113 C113 LIG A   1     -29.815 -10.401  22.466  1.00  0.00     0.127  C
HETATM  114 C114 LIG A   1     -29.790  -9.742  21.110  1.00  0.00     0.326  C
HETATM  115 O115 LIG A   1     -29.533 -10.419  20.081  1.00  0.00    -0.250  O
HETATM  116 C116 LIG A   1     -29.588  -9.391  23.614  1.00  0.00    -0.020  C
HETATM  117 C117 LIG A   1     -28.227  -8.671  23.542  1.00  0.00    -0.033  C
HETATM  118 C118 LIG A   1     -28.092  -7.628  24.656  1.00  0.00     0.018  C
HETATM  119 N119 LIG A   1     -26.929  -6.771  24.423  1.00  0.00    -0.357  N
HETATM  120 C120 LIG A   1     -25.573  -7.213  24.577  1.00  0.00     0.185  C
HETATM  121 N121 LIG A   1     -25.315  -8.430  24.938  1.00  0.00    -0.270  N
HETATM  122 N122 LIG A   1     -24.501  -6.298  24.336  1.00  0.00    -0.370  N
HETATM  123 O123 LIG A   1     -30.131  -8.400  20.978  1.00  0.00    -0.480  O
ENDROOT
TORSDOF 0
                                                                                                                              
ENDMDL
MODEL 3
REMARK VINA RESULT:    -6.539      2.968     11.643
REMARK INTER + INTRA:          -6.539
REMARK INTER:                  -6.539
REMARK INTRA:                   0.000
REMARK UNBOUND:                 0.000
ROOT
HETATM    1 N1   LIG A   1     -23.252  -9.239  16.613  1.00  0.00    -0.320  N
HETATM    2 C2   LIG A   1     -24.275 -10.094  16.009  1.00  0.00     0.084  C
HETATM    3 C3   LIG A   1     -25.644  -9.689  16.505  1.00  0.00     0.237  C
HETATM    4 O4   LIG A   1     -25.977  -9.955  17.692  1.00  0.00    -0.273  O
HETATM    5 C5   LIG A   1     -24.015 -11.581  16.326  1.00  0.00    -0.027  C
HETATM    6 C6   LIG A   1     -22.829 -12.204  15.551  1.00  0.00    -0.045  C
HETATM    7 C7   LIG A   1     -22.901 -13.736  15.634  1.00  0.00    -0.063  C
HETATM    8 C8   LIG A   1     -21.470 -11.722  16.084  1.00  0.00    -0.063  C
HETATM    9 N9   LIG A   1     -26.541  -8.980  15.636  1.00  0.00    -0.343  N
HETATM   10 C10  LIG A   1     -27.910  -8.590  15.996  1.00  0.00     0.110  C
HETATM   11 C11  LIG A   1     -27.878  -7.581  17.126  1.00  0.00     0.243  C
HETATM   12 O12  LIG A   1     -27.668  -6.373  16.832  1.00  0.00    -0.273  O
HETATM   13 C13  LIG A   1     -28.824  -9.833  16.229  1.00  0.00    -0.015  C
HETATM   14 C14  LIG A   1     -30.282  -9.410  16.489  1.00  0.00    -0.060  C
HETATM   15 C15  LIG A   1     -28.742 -10.864  15.072  1.00  0.00    -0.051  C
HETATM   16 C16  LIG A   1     -29.167 -10.327  13.702  1.00  0.00    -0.065  C
HETATM   17 N17  LIG A   1     -28.023  -7.962  18.508  1.00  0.00    -0.340  N
HETATM   18 C18  LIG A   1     -27.901  -6.997  19.603  1.00  0.00     0.131  C
HETATM   19 C19  LIG A   1     -26.519  -7.076  20.202  1.00  0.00     0.245  C
HETATM   20 O20  LIG A   1     -25.809  -6.033  20.234  1.00  0.00    -0.273  O
HETATM   21 C21  LIG A   1     -28.986  -7.254  20.653  1.00  0.00     0.072  C
HETATM   22 O22  LIG A   1     -28.926  -6.278  21.656  1.00  0.00    -0.394  O
HETATM   23 N23  LIG A   1     -26.009  -8.313  20.732  1.00  0.00    -0.342  N
HETATM   24 C24  LIG A   1     -24.698  -8.408  21.388  1.00  0.00     0.116  C
HETATM   25 C25  LIG A   1     -24.022  -9.701  21.013  1.00  0.00     0.243  C
HETATM   26 O26  LIG A   1     -23.025  -9.672  20.243  1.00  0.00    -0.273  O
HETATM   27 C27  LIG A   1     -24.844  -8.291  22.916  1.00  0.00     0.056  C
HETATM   28 C28  LIG A   1     -25.223  -6.898  23.329  1.00  0.00     0.220  C
HETATM   29 O29  LIG A   1     -24.358  -5.982  23.295  1.00  0.00    -0.275  O
HETATM   30 N30  LIG A   1     -26.556  -6.596  23.736  1.00  0.00    -0.370  N
HETATM   31 N31  LIG A   1     -24.493 -10.958  21.526  1.00  0.00    -0.340  N
HETATM   32 C32  LIG A   1     -23.706 -12.193  21.413  1.00  0.00     0.134  C
HETATM   33 C33  LIG A   1     -24.141 -12.985  20.205  1.00  0.00     0.245  C
HETATM   34 O34  LIG A   1     -23.263 -13.472  19.443  1.00  0.00    -0.273  O
HETATM   35 C35  LIG A   1     -23.803 -13.038  22.701  1.00  0.00     0.080  C
HETATM   36 O36  LIG A   1     -25.140 -13.369  22.968  1.00  0.00    -0.391  O
HETATM   37 C37  LIG A   1     -23.206 -12.290  23.900  1.00  0.00    -0.036  C
HETATM   38 N38  LIG A   1     -25.534 -13.210  19.936  1.00  0.00    -0.342  N
HETATM   39 C39  LIG A   1     -26.000 -13.919  18.737  1.00  0.00     0.108  C
HETATM   40 C40  LIG A   1     -27.460 -13.623  18.486  1.00  0.00     0.243  C
HETATM   41 O41  LIG A   1     -27.818 -13.219  17.347  1.00  0.00    -0.273  O
HETATM   42 C42  LIG A   1     -25.776 -15.437  18.880  1.00  0.00    -0.024  C
HETATM   43 C43  LIG A   1     -25.888 -16.157  17.528  1.00  0.00    -0.050  C
HETATM   44 C44  LIG A   1     -25.753 -17.673  17.699  1.00  0.00    -0.041  C
HETATM   45 C45  LIG A   1     -25.823 -18.394  16.352  1.00  0.00    -0.008  C
HETATM   46 N46  LIG A   1     -25.828 -19.838  16.560  1.00  0.00    -0.330  N
HETATM   47 N47  LIG A   1     -28.432 -13.844  19.523  1.00  0.00    -0.343  N
HETATM   48 C48  LIG A   1     -29.885 -13.748  19.360  1.00  0.00     0.108  C
HETATM   49 C49  LIG A   1     -30.381 -14.924  18.561  1.00  0.00     0.243  C
HETATM   50 O50  LIG A   1     -30.237 -14.945  17.307  1.00  0.00    -0.273  O
HETATM   51 C51  LIG A   1     -30.314 -12.387  18.764  1.00  0.00    -0.024  C
HETATM   52 C52  LIG A   1     -31.787 -12.043  19.066  1.00  0.00    -0.050  C
HETATM   53 C53  LIG A   1     -32.016 -11.482  20.483  1.00  0.00    -0.041  C
HETATM   54 C54  LIG A   1     -31.545 -10.030  20.626  1.00  0.00    -0.008  C
HETATM   55 N55  LIG A   1     -31.882  -9.523  21.952  1.00  0.00    -0.330  N
HETATM   56 N56  LIG A   1     -30.937 -16.062  19.238  1.00  0.00    -0.342  N
HETATM   57 C57  LIG A   1     -30.963 -17.394  18.626  1.00  0.00     0.112  C
HETATM   58 C58  LIG A   1     -31.843 -18.323  19.431  1.00  0.00     0.243  C
HETATM   59 O59  LIG A   1     -32.786 -18.931  18.854  1.00  0.00    -0.273  O
HETATM   60 C60  LIG A   1     -29.530 -17.947  18.519  1.00  0.00     0.002  C
HETATM   61 C61  LIG A   1     -29.480 -19.239  17.746  1.00  0.00    -0.045  C
HETATM   62 C62  LIG A   1     -29.400 -19.219  16.344  1.00  0.00    -0.059  C
HETATM   63 C63  LIG A   1     -29.542 -20.474  18.415  1.00  0.00    -0.059  C
HETATM   64 C64  LIG A   1     -29.350 -20.417  15.624  1.00  0.00    -0.062  C
HETATM   65 C65  LIG A   1     -29.495 -21.669  17.692  1.00  0.00    -0.062  C
HETATM   66 C66  LIG A   1     -29.393 -21.641  16.299  1.00  0.00    -0.062  C
HETATM   67 N67  LIG A   1     -31.598 -18.534  20.829  1.00  0.00    -0.345  N
HETATM   68 C68  LIG A   1     -32.405 -19.459  21.622  1.00  0.00     0.097  C
HETATM   69 C69  LIG A   1     -32.184 -19.230  23.089  1.00  0.00     0.240  C
HETATM   70 O70  LIG A   1     -32.326 -18.067  23.556  1.00  0.00    -0.273  O
HETATM   71 N71  LIG A   1     -31.848 -20.325  23.958  1.00  0.00    -0.341  N
HETATM   72 C72  LIG A   1     -31.483 -20.135  25.364  1.00  0.00     0.134  C
HETATM   73 C73  LIG A   1     -29.987 -20.293  25.504  1.00  0.00     0.245  C
HETATM   74 O74  LIG A   1     -29.272 -19.268  25.353  1.00  0.00    -0.273  O
HETATM   75 C75  LIG A   1     -32.324 -21.071  26.263  1.00  0.00     0.080  C
HETATM   76 O76  LIG A   1     -33.685 -20.786  26.059  1.00  0.00    -0.391  O
HETATM   77 C77  LIG A   1     -31.990 -20.878  27.750  1.00  0.00    -0.036  C
HETATM   78 N78  LIG A   1     -29.362 -21.571  25.731  1.00  0.00    -0.343  N
HETATM   79 C79  LIG A   1     -27.904 -21.764  25.761  1.00  0.00     0.105  C
HETATM   80 C80  LIG A   1     -27.241 -20.864  26.785  1.00  0.00     0.242  C
HETATM   81 O81  LIG A   1     -27.928 -20.365  27.718  1.00  0.00    -0.273  O
HETATM   82 C82  LIG A   1     -27.328 -21.553  24.355  1.00  0.00    -0.036  C
HETATM   83 N83  LIG A   1     -25.825 -20.630  26.743  1.00  0.00    -0.342  N
HETATM   84 C84  LIG A   1     -25.204 -19.434  27.323  1.00  0.00     0.110  C
HETATM   85 C85  LIG A   1     -24.853 -18.477  26.210  1.00  0.00     0.243  C
HETATM   86 O86  LIG A   1     -25.304 -17.301  26.245  1.00  0.00    -0.273  O
HETATM   87 C87  LIG A   1     -23.958 -19.820  28.173  1.00  0.00    -0.015  C
HETATM   88 C88  LIG A   1     -23.285 -18.563  28.760  1.00  0.00    -0.060  C
HETATM   89 C89  LIG A   1     -24.359 -20.804  29.302  1.00  0.00    -0.051  C
HETATM   90 C90  LIG A   1     -23.156 -21.394  30.042  1.00  0.00    -0.065  C
HETATM   91 N91  LIG A   1     -23.985 -18.882  25.139  1.00  0.00    -0.343  N
HETATM   92 C92  LIG A   1     -23.533 -17.945  24.105  1.00  0.00     0.105  C
HETATM   93 C93  LIG A   1     -24.623 -17.701  23.098  1.00  0.00     0.243  C
HETATM   94 O94  LIG A   1     -24.826 -16.528  22.685  1.00  0.00    -0.273  O
HETATM   95 C95  LIG A   1     -22.290 -18.489  23.399  1.00  0.00    -0.036  C
HETATM   96 N96  LIG A   1     -25.374 -18.797  22.552  1.00  0.00    -0.340  N
HETATM   97 C97  LIG A   1     -26.335 -18.627  21.457  1.00  0.00     0.131  C
HETATM   98 C98  LIG A   1     -27.676 -18.222  22.015  1.00  0.00     0.245  C
HETATM   99 O99  LIG A   1     -28.521 -19.106  22.323  1.00  0.00    -0.273  O
HETATM  100 C100 LIG A   1     -26.431 -19.921  20.634  1.00  0.00     0.072  C
HETATM  101 O101 LIG A   1     -25.190 -20.204  20.049  1.00  0.00    -0.394  O
HETATM  102 N102 LIG A   1     -27.966 -16.839  22.271  1.00  0.00    -0.342  N
HETATM  103 C103 LIG A   1     -28.834 -16.449  23.384  1.00  0.00     0.113  C
HETATM  104 C104 LIG A   1     -29.463 -15.100  23.132  1.00  0.00     0.243  C
HETATM  105 O105 LIG A   1     -30.710 -15.028  22.957  1.00  0.00    -0.273  O
HETATM  106 C106 LIG A   1     -28.019 -16.459  24.693  1.00  0.00     0.021  C
HETATM  107 C107 LIG A   1     -28.855 -16.211  25.917  1.00  0.00     0.061  C
HETATM  108 N108 LIG A   1     -30.192 -16.385  25.989  1.00  0.00    -0.242  N
HETATM  109 C109 LIG A   1     -28.362 -15.891  27.161  1.00  0.00     0.024  C
HETATM  110 C110 LIG A   1     -30.483 -16.138  27.282  1.00  0.00     0.092  C
HETATM  111 N111 LIG A   1     -29.394 -15.838  28.015  1.00  0.00    -0.351  N
HETATM  112 N112 LIG A   1     -28.670 -13.903  23.122  1.00  0.00    -0.341  N
HETATM  113 C113 LIG A   1     -29.204 -12.620  23.594  1.00  0.00     0.127  C
HETATM  114 C114 LIG A   1     -28.620 -11.473  22.808  1.00  0.00     0.326  C
HETATM  115 O115 LIG A   1     -28.341 -11.617  21.589  1.00  0.00    -0.250  O
HETATM  116 C116 LIG A   1     -28.965 -12.471  25.114  1.00  0.00    -0.020  C
HETATM  117 C117 LIG A   1     -27.474 -12.434  25.504  1.00  0.00    -0.033  C
HETATM  118 C118 LIG A   1     -27.299 -12.206  27.009  1.00  0.00     0.018  C
HETATM  119 N119 LIG A   1     -25.904 -11.905  27.326  1.00  0.00    -0.357  N
HETATM  120 C120 LIG A   1     -24.850 -12.879  27.281  1.00  0.00     0.185  C
HETATM  121 N121 LIG A   1     -25.102 -14.103  26.944  1.00  0.00    -0.270  N
HETATM  122 N122 LIG A   1     -23.516 -12.491  27.620  1.00  0.00    -0.370  N
HETATM  123 O123 LIG A   1     -28.463 -10.225  23.403  1.00  0.00    -0.480  O
ENDROOT
TORSDOF 0
                                                                                                                              
ENDMDL
