MODEL 1
REMARK VINA RESULT:    -6.645      0.000      0.000
REMARK INTER + INTRA:          -6.645
REMARK INTER:                  -6.645
REMARK INTRA:                   0.000
REMARK UNBOUND:                 0.000
ROOT
HETATM    1 N1   LIG A   1     -21.514  -8.909  17.706  1.00  0.00    -0.320  N
HETATM    2 C2   LIG A   1     -21.891 -10.277  17.347  1.00  0.00     0.084  C
HETATM    3 C3   LIG A   1     -23.344 -10.320  16.932  1.00  0.00     0.237  C
HETATM    4 O4   LIG A   1     -24.243 -10.194  17.809  1.00  0.00    -0.273  O
HETATM    5 C5   LIG A   1     -21.645 -11.248  18.521  1.00  0.00    -0.027  C
HETATM    6 C6   LIG A   1     -20.155 -11.571  18.784  1.00  0.00    -0.045  C
HETATM    7 C7   LIG A   1     -20.044 -12.812  19.682  1.00  0.00    -0.063  C
HETATM    8 C8   LIG A   1     -19.412 -10.395  19.436  1.00  0.00    -0.063  C
HETATM    9 N9   LIG A   1     -23.691 -10.472  15.547  1.00  0.00    -0.343  N
HETATM   10 C10  LIG A   1     -25.065 -10.584  15.043  1.00  0.00     0.110  C
HETATM   11 C11  LIG A   1     -25.814  -9.292  15.302  1.00  0.00     0.243  C
HETATM   12 O12  LIG A   1     -25.649  -8.341  14.490  1.00  0.00    -0.273  O
HETATM   13 C13  LIG A   1     -25.766 -11.881  15.551  1.00  0.00    -0.015  C
HETATM   14 C14  LIG A   1     -27.162 -12.043  14.921  1.00  0.00    -0.060  C
HETATM   15 C15  LIG A   1     -24.905 -13.154  15.331  1.00  0.00    -0.051  C
HETATM   16 C16  LIG A   1     -24.561 -13.451  13.869  1.00  0.00    -0.065  C
HETATM   17 N17  LIG A   1     -26.652  -9.102  16.459  1.00  0.00    -0.340  N
HETATM   18 C18  LIG A   1     -27.302  -7.822  16.753  1.00  0.00     0.131  C
HETATM   19 C19  LIG A   1     -26.498  -7.064  17.779  1.00  0.00     0.245  C
HETATM   20 O20  LIG A   1     -26.084  -5.907  17.494  1.00  0.00    -0.273  O
HETATM   21 C21  LIG A   1     -28.739  -8.060  17.225  1.00  0.00     0.072  C
HETATM   22 O22  LIG A   1     -29.389  -6.835  17.422  1.00  0.00    -0.394  O
HETATM   23 N23  LIG A   1     -26.202  -7.641  19.064  1.00  0.00    -0.342  N
HETATM   24 C24  LIG A   1     -25.486  -6.903  20.112  1.00  0.00     0.116  C
HETATM   25 C25  LIG A   1     -24.540  -7.823  20.842  1.00  0.00     0.243  C
HETATM   26 O26  LIG A   1     -23.299  -7.693  20.664  1.00  0.00    -0.273  O
HETATM   27 C27  LIG A   1     -26.477  -6.249  21.093  1.00  0.00     0.056  C
HETATM   28 C28  LIG A   1     -27.214  -5.109  20.453  1.00  0.00     0.220  C
HETATM   29 O29  LIG A   1     -26.619  -4.016  20.254  1.00  0.00    -0.275  O
HETATM   30 N30  LIG A   1     -28.574  -5.257  20.047  1.00  0.00    -0.370  N
HETATM   31 N31  LIG A   1     -25.035  -8.832  21.736  1.00  0.00    -0.340  N
HETATM   32 C32  LIG A   1     -24.154  -9.552  22.666  1.00  0.00     0.134  C
HETATM   33 C33  LIG A   1     -23.721 -10.867  22.068  1.00  0.00     0.245  C
HETATM   34 O34  LIG A   1     -22.508 -11.204  22.141  1.00  0.00    -0.273  O
HETATM   35 C35  LIG A   1     -24.834  -9.756  24.036  1.00  0.00     0.080  C
HETATM   36 O36  LIG A   1     -26.028 -10.477  23.885  1.00  0.00    -0.391  O
HETATM   37 C37  LIG A   1     -25.123  -8.412  24.716  1.00  0.00    -0.036  C
HETATM   38 N38  LIG A   1     -24.675 -11.743  21.448  1.00  0.00    -0.342  N
HETATM   39 C39  LIG A   1     -24.285 -13.000  20.797  1.00  0.00     0.108  C
HETATM   40 C40  LIG A   1     -25.378 -13.474  19.868  1.00  0.00     0.243  C
HETATM   41 O41  LIG A   1     -25.090 -13.757  18.675  1.00  0.00    -0.273  O
HETATM   42 C42  LIG A   1     -23.967 -14.082  21.848  1.00  0.00    -0.024  C
HETATM   43 C43  LIG A   1     -23.200 -15.262  21.234  1.00  0.00    -0.050  C
HETATM   44 C44  LIG A   1     -22.971 -16.368  22.268  1.00  0.00    -0.041  C
HETATM   45 C45  LIG A   1     -22.171 -17.529  21.675  1.00  0.00    -0.008  C
HETATM   46 N46  LIG A   1     -22.087 -18.620  22.640  1.00  0.00    -0.330  N
HETATM   47 N47  LIG A   1     -26.721 -13.640  20.357  1.00  0.00    -0.343  N
HETATM   48 C48  LIG A   1     -27.830 -14.237  19.607  1.00  0.00     0.108  C
HETATM   49 C49  LIG A   1     -27.621 -15.724  19.498  1.00  0.00     0.243  C
HETATM   50 O50  LIG A   1     -26.799 -16.189  18.661  1.00  0.00    -0.273  O
HETATM   51 C51  LIG A   1     -28.040 -13.552  18.237  1.00  0.00    -0.024  C
HETATM   52 C52  LIG A   1     -29.460 -13.767  17.675  1.00  0.00    -0.050  C
HETATM   53 C53  LIG A   1     -30.519 -12.833  18.291  1.00  0.00    -0.041  C
HETATM   54 C54  LIG A   1     -30.420 -11.398  17.760  1.00  0.00    -0.008  C
HETATM   55 N55  LIG A   1     -31.510 -10.589  18.298  1.00  0.00    -0.330  N
HETATM   56 N56  LIG A   1     -28.292 -16.607  20.411  1.00  0.00    -0.342  N
HETATM   57 C57  LIG A   1     -27.783 -17.948  20.711  1.00  0.00     0.112  C
HETATM   58 C58  LIG A   1     -28.820 -18.745  21.469  1.00  0.00     0.243  C
HETATM   59 O59  LIG A   1     -29.182 -19.868  21.021  1.00  0.00    -0.273  O
HETATM   60 C60  LIG A   1     -26.474 -17.840  21.516  1.00  0.00     0.002  C
HETATM   61 C61  LIG A   1     -25.818 -19.182  21.709  1.00  0.00    -0.045  C
HETATM   62 C62  LIG A   1     -24.971 -19.701  20.716  1.00  0.00    -0.059  C
HETATM   63 C63  LIG A   1     -26.069 -19.940  22.865  1.00  0.00    -0.059  C
HETATM   64 C64  LIG A   1     -24.358 -20.945  20.893  1.00  0.00    -0.062  C
HETATM   65 C65  LIG A   1     -25.455 -21.185  23.037  1.00  0.00    -0.062  C
HETATM   66 C66  LIG A   1     -24.597 -21.684  22.055  1.00  0.00    -0.062  C
HETATM   67 N67  LIG A   1     -29.372 -18.246  22.696  1.00  0.00    -0.345  N
HETATM   68 C68  LIG A   1     -30.345 -19.014  23.472  1.00  0.00     0.097  C
HETATM   69 C69  LIG A   1     -31.017 -18.140  24.491  1.00  0.00     0.240  C
HETATM   70 O70  LIG A   1     -31.560 -17.066  24.113  1.00  0.00    -0.273  O
HETATM   71 N71  LIG A   1     -31.074 -18.537  25.871  1.00  0.00    -0.341  N
HETATM   72 C72  LIG A   1     -31.591 -17.660  26.925  1.00  0.00     0.134  C
HETATM   73 C73  LIG A   1     -30.425 -17.104  27.709  1.00  0.00     0.245  C
HETATM   74 O74  LIG A   1     -29.901 -16.033  27.305  1.00  0.00    -0.273  O
HETATM   75 C75  LIG A   1     -32.647 -18.407  27.770  1.00  0.00     0.080  C
HETATM   76 O76  LIG A   1     -33.685 -18.829  26.921  1.00  0.00    -0.391  O
HETATM   77 C77  LIG A   1     -33.234 -17.508  28.868  1.00  0.00    -0.036  C
HETATM   78 N78  LIG A   1     -29.860 -17.788  28.845  1.00  0.00    -0.343  N
HETATM   79 C79  LIG A   1     -28.659 -17.323  29.555  1.00  0.00     0.105  C
HETATM   80 C80  LIG A   1     -28.818 -15.898  30.048  1.00  0.00     0.242  C
HETATM   81 O81  LIG A   1     -29.972 -15.402  30.168  1.00  0.00    -0.273  O
HETATM   82 C82  LIG A   1     -27.432 -17.480  28.648  1.00  0.00    -0.036  C
HETATM   83 N83  LIG A   1     -27.671 -15.132  30.448  1.00  0.00    -0.342  N
HETATM   84 C84  LIG A   1     -27.659 -13.665  30.438  1.00  0.00     0.110  C
HETATM   85 C85  LIG A   1     -26.884 -13.192  29.231  1.00  0.00     0.243  C
HETATM   86 O86  LIG A   1     -27.439 -12.411  28.413  1.00  0.00    -0.273  O
HETATM   87 C87  LIG A   1     -27.062 -13.112  31.765  1.00  0.00    -0.015  C
HETATM   88 C88  LIG A   1     -27.020 -11.570  31.746  1.00  0.00    -0.060  C
HETATM   89 C89  LIG A   1     -27.882 -13.621  32.978  1.00  0.00    -0.051  C
HETATM   90 C90  LIG A   1     -27.231 -13.296  34.325  1.00  0.00    -0.065  C
HETATM   91 N91  LIG A   1     -25.520 -13.592  29.032  1.00  0.00    -0.343  N
HETATM   92 C92  LIG A   1     -24.704 -13.060  27.934  1.00  0.00     0.105  C
HETATM   93 C93  LIG A   1     -25.065 -13.728  26.635  1.00  0.00     0.243  C
HETATM   94 O94  LIG A   1     -25.166 -13.027  25.592  1.00  0.00    -0.273  O
HETATM   95 C95  LIG A   1     -23.217 -13.267  28.225  1.00  0.00    -0.036  C
HETATM   96 N96  LIG A   1     -25.218 -15.154  26.562  1.00  0.00    -0.340  N
HETATM   97 C97  LIG A   1     -25.413 -15.862  25.293  1.00  0.00     0.131  C
HETATM   98 C98  LIG A   1     -26.878 -15.868  24.935  1.00  0.00     0.245  C
HETATM   99 O99  LIG A   1     -27.615 -16.816  25.322  1.00  0.00    -0.273  O
HETATM  100 C100 LIG A   1     -24.848 -17.287  25.392  1.00  0.00     0.072  C
HETATM  101 O101 LIG A   1     -23.468 -17.235  25.622  1.00  0.00    -0.394  O
HETATM  102 N102 LIG A   1     -27.454 -14.762  24.222  1.00  0.00    -0.342  N
HETATM  103 C103 LIG A   1     -28.841 -14.358  24.461  1.00  0.00     0.113  C
HETATM  104 C104 LIG A   1     -29.404 -13.628  23.266  1.00  0.00     0.243  C
HETATM  105 O105 LIG A   1     -30.335 -14.163  22.604  1.00  0.00    -0.273  O
HETATM  106 C106 LIG A   1     -28.907 -13.495  25.736  1.00  0.00     0.021  C
HETATM  107 C107 LIG A   1     -30.309 -13.146  26.148  1.00  0.00     0.061  C
HETATM  108 N108 LIG A   1     -31.417 -13.818  25.768  1.00  0.00    -0.242  N
HETATM  109 C109 LIG A   1     -30.648 -12.175  27.063  1.00  0.00     0.024  C
HETATM  110 C110 LIG A   1     -32.413 -13.215  26.447  1.00  0.00     0.092  C
HETATM  111 N111 LIG A   1     -31.977 -12.218  27.239  1.00  0.00    -0.351  N
HETATM  112 N112 LIG A   1     -28.921 -12.327  22.896  1.00  0.00    -0.341  N
HETATM  113 C113 LIG A   1     -29.803 -11.317  22.300  1.00  0.00     0.127  C
HETATM  114 C114 LIG A   1     -29.049 -10.460  21.315  1.00  0.00     0.326  C
HETATM  115 O115 LIG A   1     -28.118 -10.954  20.626  1.00  0.00    -0.250  O
HETATM  116 C116 LIG A   1     -30.479 -10.480  23.409  1.00  0.00    -0.020  C
HETATM  117 C117 LIG A   1     -29.486  -9.667  24.262  1.00  0.00    -0.033  C
HETATM  118 C118 LIG A   1     -30.217  -8.798  25.290  1.00  0.00     0.018  C
HETATM  119 N119 LIG A   1     -29.298  -7.840  25.903  1.00  0.00    -0.357  N
HETATM  120 C120 LIG A   1     -28.275  -8.208  26.840  1.00  0.00     0.185  C
HETATM  121 N121 LIG A   1     -28.118  -9.445  27.189  1.00  0.00    -0.270  N
HETATM  122 N122 LIG A   1     -27.430  -7.197  27.396  1.00  0.00    -0.370  N
HETATM  123 O123 LIG A   1     -29.430  -9.139  21.100  1.00  0.00    -0.480  O
ENDROOT
TORSDOF 0
                                                                                                                              
ENDMDL
MODEL 2
REMARK VINA RESULT:    -6.589      2.397      3.912
REMARK INTER + INTRA:          -6.589
REMARK INTER:                  -6.589
REMARK INTRA:                   0.000
REMARK UNBOUND:                 0.000
ROOT
HETATM    1 N1   LIG A   1     -26.154  -9.612  13.435  1.00  0.00    -0.320  N
HETATM    2 C2   LIG A   1     -26.758 -10.937  13.591  1.00  0.00     0.084  C
HETATM    3 C3   LIG A   1     -28.147 -10.806  14.171  1.00  0.00     0.237  C
HETATM    4 O4   LIG A   1     -28.285 -10.488  15.385  1.00  0.00    -0.273  O
HETATM    5 C5   LIG A   1     -25.890 -11.841  14.492  1.00  0.00    -0.027  C
HETATM    6 C6   LIG A   1     -24.590 -12.350  13.826  1.00  0.00    -0.045  C
HETATM    7 C7   LIG A   1     -24.016 -13.523  14.635  1.00  0.00    -0.063  C
HETATM    8 C8   LIG A   1     -23.530 -11.244  13.699  1.00  0.00    -0.063  C
HETATM    9 N9   LIG A   1     -29.296 -11.012  13.335  1.00  0.00    -0.343  N
HETATM   10 C10  LIG A   1     -30.685 -10.966  13.808  1.00  0.00     0.110  C
HETATM   11 C11  LIG A   1     -31.023  -9.565  14.279  1.00  0.00     0.243  C
HETATM   12 O12  LIG A   1     -31.346  -8.712  13.409  1.00  0.00    -0.273  O
HETATM   13 C13  LIG A   1     -30.991 -12.110  14.824  1.00  0.00    -0.015  C
HETATM   14 C14  LIG A   1     -32.479 -12.120  15.221  1.00  0.00    -0.060  C
HETATM   15 C15  LIG A   1     -30.542 -13.504  14.312  1.00  0.00    -0.051  C
HETATM   16 C16  LIG A   1     -31.213 -13.957  13.012  1.00  0.00    -0.065  C
HETATM   17 N17  LIG A   1     -30.933  -9.172  15.662  1.00  0.00    -0.340  N
HETATM   18 C18  LIG A   1     -31.172  -7.795  16.101  1.00  0.00     0.131  C
HETATM   19 C19  LIG A   1     -29.856  -7.082  16.288  1.00  0.00     0.245  C
HETATM   20 O20  LIG A   1     -29.642  -6.020  15.642  1.00  0.00    -0.273  O
HETATM   21 C21  LIG A   1     -32.003  -7.790  17.387  1.00  0.00     0.072  C
HETATM   22 O22  LIG A   1     -32.307  -6.474  17.759  1.00  0.00    -0.394  O
HETATM   23 N23  LIG A   1     -28.855  -7.595  17.186  1.00  0.00    -0.342  N
HETATM   24 C24  LIG A   1     -27.594  -6.889  17.447  1.00  0.00     0.116  C
HETATM   25 C25  LIG A   1     -26.461  -7.875  17.565  1.00  0.00     0.243  C
HETATM   26 O26  LIG A   1     -25.602  -7.935  16.644  1.00  0.00    -0.273  O
HETATM   27 C27  LIG A   1     -27.705  -6.029  18.720  1.00  0.00     0.056  C
HETATM   28 C28  LIG A   1     -28.608  -4.848  18.510  1.00  0.00     0.220  C
HETATM   29 O29  LIG A   1     -28.203  -3.868  17.828  1.00  0.00    -0.275  O
HETATM   30 N30  LIG A   1     -29.926  -4.833  19.055  1.00  0.00    -0.370  N
HETATM   31 N31  LIG A   1     -26.344  -8.733  18.711  1.00  0.00    -0.340  N
HETATM   32 C32  LIG A   1     -25.122  -9.498  18.994  1.00  0.00     0.134  C
HETATM   33 C33  LIG A   1     -25.245 -10.903  18.459  1.00  0.00     0.245  C
HETATM   34 O34  LIG A   1     -24.280 -11.401  17.819  1.00  0.00    -0.273  O
HETATM   35 C35  LIG A   1     -24.801  -9.499  20.504  1.00  0.00     0.080  C
HETATM   36 O36  LIG A   1     -25.866 -10.054  21.229  1.00  0.00    -0.391  O
HETATM   37 C37  LIG A   1     -24.513  -8.081  21.009  1.00  0.00    -0.036  C
HETATM   38 N38  LIG A   1     -26.430 -11.680  18.696  1.00  0.00    -0.342  N
HETATM   39 C39  LIG A   1     -26.615 -13.025  18.138  1.00  0.00     0.108  C
HETATM   40 C40  LIG A   1     -28.075 -13.409  18.162  1.00  0.00     0.243  C
HETATM   41 O41  LIG A   1     -28.621 -13.819  17.103  1.00  0.00    -0.273  O
HETATM   42 C42  LIG A   1     -25.775 -14.058  18.915  1.00  0.00    -0.024  C
HETATM   43 C43  LIG A   1     -25.640 -15.377  18.141  1.00  0.00    -0.050  C
HETATM   44 C44  LIG A   1     -24.881 -16.423  18.964  1.00  0.00    -0.041  C
HETATM   45 C45  LIG A   1     -24.708 -17.727  18.184  1.00  0.00    -0.008  C
HETATM   46 N46  LIG A   1     -24.104 -18.743  19.040  1.00  0.00    -0.330  N
HETATM   47 N47  LIG A   1     -28.819 -13.346  19.391  1.00  0.00    -0.343  N
HETATM   48 C48  LIG A   1     -30.188 -13.835  19.582  1.00  0.00     0.108  C
HETATM   49 C49  LIG A   1     -30.187 -15.341  19.589  1.00  0.00     0.243  C
HETATM   50 O50  LIG A   1     -30.105 -15.979  18.503  1.00  0.00    -0.273  O
HETATM   51 C51  LIG A   1     -31.169 -13.234  18.550  1.00  0.00    -0.024  C
HETATM   52 C52  LIG A   1     -32.636 -13.288  19.022  1.00  0.00    -0.050  C
HETATM   53 C53  LIG A   1     -33.012 -12.170  20.013  1.00  0.00    -0.041  C
HETATM   54 C54  LIG A   1     -33.180 -10.807  19.329  1.00  0.00    -0.008  C
HETATM   55 N55  LIG A   1     -33.635  -9.814  20.297  1.00  0.00    -0.330  N
HETATM   56 N56  LIG A   1     -30.189 -16.048  20.839  1.00  0.00    -0.342  N
HETATM   57 C57  LIG A   1     -29.689 -17.421  20.956  1.00  0.00     0.112  C
HETATM   58 C58  LIG A   1     -30.067 -18.003  22.298  1.00  0.00     0.243  C
HETATM   59 O59  LIG A   1     -30.699 -19.095  22.341  1.00  0.00    -0.273  O
HETATM   60 C60  LIG A   1     -28.162 -17.438  20.757  1.00  0.00     0.002  C
HETATM   61 C61  LIG A   1     -27.616 -18.841  20.700  1.00  0.00    -0.045  C
HETATM   62 C62  LIG A   1     -27.616 -19.548  19.486  1.00  0.00    -0.059  C
HETATM   63 C63  LIG A   1     -27.131 -19.466  21.861  1.00  0.00    -0.059  C
HETATM   64 C64  LIG A   1     -27.108 -20.849  19.429  1.00  0.00    -0.062  C
HETATM   65 C65  LIG A   1     -26.625 -20.768  21.800  1.00  0.00    -0.062  C
HETATM   66 C66  LIG A   1     -26.609 -21.457  20.585  1.00  0.00    -0.062  C
HETATM   67 N67  LIG A   1     -29.692 -17.341  23.515  1.00  0.00    -0.345  N
HETATM   68 C68  LIG A   1     -30.006 -17.902  24.827  1.00  0.00     0.097  C
HETATM   69 C69  LIG A   1     -29.832 -16.867  25.901  1.00  0.00     0.240  C
HETATM   70 O70  LIG A   1     -30.423 -15.759  25.784  1.00  0.00    -0.273  O
HETATM   71 N71  LIG A   1     -29.033 -17.146  27.063  1.00  0.00    -0.341  N
HETATM   72 C72  LIG A   1     -28.716 -16.127  28.067  1.00  0.00     0.134  C
HETATM   73 C73  LIG A   1     -27.285 -15.684  27.873  1.00  0.00     0.245  C
HETATM   74 O74  LIG A   1     -27.066 -14.731  27.081  1.00  0.00    -0.273  O
HETATM   75 C75  LIG A   1     -29.051 -16.652  29.482  1.00  0.00     0.080  C
HETATM   76 O76  LIG A   1     -30.415 -16.986  29.526  1.00  0.00    -0.391  O
HETATM   77 C77  LIG A   1     -28.759 -15.598  30.560  1.00  0.00    -0.036  C
HETATM   78 N78  LIG A   1     -26.176 -16.353  28.506  1.00  0.00    -0.343  N
HETATM   79 C79  LIG A   1     -24.769 -16.009  28.247  1.00  0.00     0.105  C
HETATM   80 C80  LIG A   1     -24.493 -14.543  28.517  1.00  0.00     0.242  C
HETATM   81 O81  LIG A   1     -25.281 -13.881  29.247  1.00  0.00    -0.273  O
HETATM   82 C82  LIG A   1     -24.398 -16.407  26.813  1.00  0.00    -0.036  C
HETATM   83 N83  LIG A   1     -23.305 -13.918  28.007  1.00  0.00    -0.342  N
HETATM   84 C84  LIG A   1     -23.210 -12.472  27.775  1.00  0.00     0.110  C
HETATM   85 C85  LIG A   1     -23.339 -12.207  26.294  1.00  0.00     0.243  C
HETATM   86 O86  LIG A   1     -24.234 -11.420  25.887  1.00  0.00    -0.273  O
HETATM   87 C87  LIG A   1     -21.879 -11.910  28.352  1.00  0.00    -0.015  C
HETATM   88 C88  LIG A   1     -21.761 -10.396  28.084  1.00  0.00    -0.060  C
HETATM   89 C89  LIG A   1     -21.783 -12.205  29.872  1.00  0.00    -0.051  C
HETATM   90 C90  LIG A   1     -20.411 -11.874  30.465  1.00  0.00    -0.065  C
HETATM   91 N91  LIG A   1     -22.431 -12.809  25.358  1.00  0.00    -0.343  N
HETATM   92 C92  LIG A   1     -22.456 -12.483  23.928  1.00  0.00     0.105  C
HETATM   93 C93  LIG A   1     -23.595 -13.190  23.243  1.00  0.00     0.243  C
HETATM   94 O94  LIG A   1     -24.284 -12.563  22.395  1.00  0.00    -0.273  O
HETATM   95 C95  LIG A   1     -21.133 -12.876  23.268  1.00  0.00    -0.036  C
HETATM   96 N96  LIG A   1     -23.848 -14.581  23.492  1.00  0.00    -0.340  N
HETATM   97 C97  LIG A   1     -24.841 -15.349  22.734  1.00  0.00     0.131  C
HETATM   98 C98  LIG A   1     -26.202 -15.176  23.360  1.00  0.00     0.245  C
HETATM   99 O99  LIG A   1     -26.590 -15.977  24.253  1.00  0.00    -0.273  O
HETATM  100 C100 LIG A   1     -24.430 -16.828  22.673  1.00  0.00     0.072  C
HETATM  101 O101 LIG A   1     -23.212 -16.954  21.993  1.00  0.00    -0.394  O
HETATM  102 N102 LIG A   1     -27.028 -14.057  23.000  1.00  0.00    -0.342  N
HETATM  103 C103 LIG A   1     -27.927 -13.443  23.979  1.00  0.00     0.113  C
HETATM  104 C104 LIG A   1     -29.070 -12.734  23.294  1.00  0.00     0.243  C
HETATM  105 O105 LIG A   1     -30.241 -13.181  23.433  1.00  0.00    -0.273  O
HETATM  106 C106 LIG A   1     -27.122 -12.485  24.879  1.00  0.00     0.021  C
HETATM  107 C107 LIG A   1     -27.929 -11.912  26.010  1.00  0.00     0.061  C
HETATM  108 N108 LIG A   1     -29.068 -12.448  26.497  1.00  0.00    -0.242  N
HETATM  109 C109 LIG A   1     -27.556 -10.836  26.784  1.00  0.00     0.024  C
HETATM  110 C110 LIG A   1     -29.376 -11.660  27.548  1.00  0.00     0.092  C
HETATM  111 N111 LIG A   1     -28.477 -10.677  27.745  1.00  0.00    -0.351  N
HETATM  112 N112 LIG A   1     -28.846 -11.547  22.518  1.00  0.00    -0.341  N
HETATM  113 C113 LIG A   1     -29.841 -10.470  22.450  1.00  0.00     0.127  C
HETATM  114 C114 LIG A   1     -29.823  -9.805  21.097  1.00  0.00     0.326  C
HETATM  115 O115 LIG A   1     -29.566 -10.477  20.064  1.00  0.00    -0.250  O
HETATM  116 C116 LIG A   1     -29.616  -9.464  23.601  1.00  0.00    -0.020  C
HETATM  117 C117 LIG A   1     -28.259  -8.738  23.530  1.00  0.00    -0.033  C
HETATM  118 C118 LIG A   1     -28.125  -7.698  24.648  1.00  0.00     0.018  C
HETATM  119 N119 LIG A   1     -26.967  -6.836  24.415  1.00  0.00    -0.357  N
HETATM  120 C120 LIG A   1     -25.608  -7.272  24.564  1.00  0.00     0.185  C
HETATM  121 N121 LIG A   1     -25.345  -8.489  24.920  1.00  0.00    -0.270  N
HETATM  122 N122 LIG A   1     -24.541  -6.352  24.324  1.00  0.00    -0.370  N
HETATM  123 O123 LIG A   1     -30.170  -8.464  20.971  1.00  0.00    -0.480  O
ENDROOT
TORSDOF 0
                                                                                                                              
ENDMDL
MODEL 3
REMARK VINA RESULT:    -6.574      2.697      4.449
REMARK INTER + INTRA:          -6.574
REMARK INTER:                  -6.574
REMARK INTRA:                   0.000
REMARK UNBOUND:                 0.000
ROOT
HETATM    1 N1   LIG A   1     -23.236  -9.092  16.625  1.00  0.00    -0.320  N
HETATM    2 C2   LIG A   1     -24.257  -9.943  16.011  1.00  0.00     0.084  C
HETATM    3 C3   LIG A   1     -25.628  -9.544  16.506  1.00  0.00     0.237  C
HETATM    4 O4   LIG A   1     -25.964  -9.819  17.690  1.00  0.00    -0.273  O
HETATM    5 C5   LIG A   1     -23.996 -11.433  16.317  1.00  0.00    -0.027  C
HETATM    6 C6   LIG A   1     -22.806 -12.048  15.542  1.00  0.00    -0.045  C
HETATM    7 C7   LIG A   1     -22.877 -13.581  15.613  1.00  0.00    -0.063  C
HETATM    8 C8   LIG A   1     -21.450 -11.569  16.082  1.00  0.00    -0.063  C
HETATM    9 N9   LIG A   1     -26.523  -8.829  15.639  1.00  0.00    -0.343  N
HETATM   10 C10  LIG A   1     -27.894  -8.444  15.998  1.00  0.00     0.110  C
HETATM   11 C11  LIG A   1     -27.866  -7.443  17.136  1.00  0.00     0.243  C
HETATM   12 O12  LIG A   1     -27.657  -6.233  16.852  1.00  0.00    -0.273  O
HETATM   13 C13  LIG A   1     -28.807  -9.690  16.218  1.00  0.00    -0.015  C
HETATM   14 C14  LIG A   1     -30.266  -9.271  16.477  1.00  0.00    -0.060  C
HETATM   15 C15  LIG A   1     -28.720 -10.711  15.054  1.00  0.00    -0.051  C
HETATM   16 C16  LIG A   1     -29.141 -10.165  13.687  1.00  0.00    -0.065  C
HETATM   17 N17  LIG A   1     -28.015  -7.836  18.514  1.00  0.00    -0.340  N
HETATM   18 C18  LIG A   1     -27.898  -6.879  19.617  1.00  0.00     0.131  C
HETATM   19 C19  LIG A   1     -26.518  -6.960  20.220  1.00  0.00     0.245  C
HETATM   20 O20  LIG A   1     -25.810  -5.917  20.262  1.00  0.00    -0.273  O
HETATM   21 C21  LIG A   1     -28.986  -7.145  20.661  1.00  0.00     0.072  C
HETATM   22 O22  LIG A   1     -28.930  -6.177  21.672  1.00  0.00    -0.394  O
HETATM   23 N23  LIG A   1     -26.008  -8.201  20.742  1.00  0.00    -0.342  N
HETATM   24 C24  LIG A   1     -24.699  -8.299  21.401  1.00  0.00     0.116  C
HETATM   25 C25  LIG A   1     -24.020  -9.589  21.018  1.00  0.00     0.243  C
HETATM   26 O26  LIG A   1     -23.020  -9.552  20.252  1.00  0.00    -0.273  O
HETATM   27 C27  LIG A   1     -24.851  -8.194  22.930  1.00  0.00     0.056  C
HETATM   28 C28  LIG A   1     -25.232  -6.805  23.352  1.00  0.00     0.220  C
HETATM   29 O29  LIG A   1     -24.369  -5.887  23.328  1.00  0.00    -0.275  O
HETATM   30 N30  LIG A   1     -26.567  -6.508  23.758  1.00  0.00    -0.370  N
HETATM   31 N31  LIG A   1     -24.491 -10.850  21.521  1.00  0.00    -0.340  N
HETATM   32 C32  LIG A   1     -23.702 -12.083  21.400  1.00  0.00     0.134  C
HETATM   33 C33  LIG A   1     -24.133 -12.866  20.186  1.00  0.00     0.245  C
HETATM   34 O34  LIG A   1     -23.252 -13.346  19.422  1.00  0.00    -0.273  O
HETATM   35 C35  LIG A   1     -23.802 -12.938  22.682  1.00  0.00     0.080  C
HETATM   36 O36  LIG A   1     -25.139 -13.273  22.942  1.00  0.00    -0.391  O
HETATM   37 C37  LIG A   1     -23.210 -12.198  23.888  1.00  0.00    -0.036  C
HETATM   38 N38  LIG A   1     -25.524 -13.091  19.910  1.00  0.00    -0.342  N
HETATM   39 C39  LIG A   1     -25.986 -13.791  18.704  1.00  0.00     0.108  C
HETATM   40 C40  LIG A   1     -27.445 -13.496  18.450  1.00  0.00     0.243  C
HETATM   41 O41  LIG A   1     -27.800 -13.083  17.314  1.00  0.00    -0.273  O
HETATM   42 C42  LIG A   1     -25.760 -15.310  18.836  1.00  0.00    -0.024  C
HETATM   43 C43  LIG A   1     -25.866 -16.020  17.479  1.00  0.00    -0.050  C
HETATM   44 C44  LIG A   1     -25.731 -17.537  17.638  1.00  0.00    -0.041  C
HETATM   45 C45  LIG A   1     -25.795 -18.247  16.285  1.00  0.00    -0.008  C
HETATM   46 N46  LIG A   1     -25.799 -19.694  16.482  1.00  0.00    -0.330  N
HETATM   47 N47  LIG A   1     -28.420 -13.726  19.483  1.00  0.00    -0.343  N
HETATM   48 C48  LIG A   1     -29.873 -13.630  19.316  1.00  0.00     0.108  C
HETATM   49 C49  LIG A   1     -30.365 -14.801  18.506  1.00  0.00     0.243  C
HETATM   50 O50  LIG A   1     -30.216 -14.812  17.253  1.00  0.00    -0.273  O
HETATM   51 C51  LIG A   1     -30.302 -12.265  18.729  1.00  0.00    -0.024  C
HETATM   52 C52  LIG A   1     -31.776 -11.925  19.029  1.00  0.00    -0.050  C
HETATM   53 C53  LIG A   1     -32.010 -11.376  20.449  1.00  0.00    -0.041  C
HETATM   54 C54  LIG A   1     -31.542  -9.924  20.605  1.00  0.00    -0.008  C
HETATM   55 N55  LIG A   1     -31.884  -9.428  21.934  1.00  0.00    -0.330  N
HETATM   56 N56  LIG A   1     -30.921 -15.945  19.173  1.00  0.00    -0.342  N
HETATM   57 C57  LIG A   1     -30.944 -17.272  18.551  1.00  0.00     0.112  C
HETATM   58 C58  LIG A   1     -31.825 -18.208  19.345  1.00  0.00     0.243  C
HETATM   59 O59  LIG A   1     -32.766 -18.813  18.761  1.00  0.00    -0.273  O
HETATM   60 C60  LIG A   1     -29.509 -17.822  18.444  1.00  0.00     0.002  C
HETATM   61 C61  LIG A   1     -29.455 -19.109  17.662  1.00  0.00    -0.045  C
HETATM   62 C62  LIG A   1     -29.370 -19.077  16.260  1.00  0.00    -0.059  C
HETATM   63 C63  LIG A   1     -29.518 -20.348  18.321  1.00  0.00    -0.059  C
HETATM   64 C64  LIG A   1     -29.317 -20.270  15.531  1.00  0.00    -0.062  C
HETATM   65 C65  LIG A   1     -29.467 -21.538  17.588  1.00  0.00    -0.062  C
HETATM   66 C66  LIG A   1     -29.361 -21.499  16.196  1.00  0.00    -0.062  C
HETATM   67 N67  LIG A   1     -31.584 -18.430  20.743  1.00  0.00    -0.345  N
HETATM   68 C68  LIG A   1     -32.393 -19.362  21.526  1.00  0.00     0.097  C
HETATM   69 C69  LIG A   1     -32.176 -19.144  22.996  1.00  0.00     0.240  C
HETATM   70 O70  LIG A   1     -32.322 -17.985  23.471  1.00  0.00    -0.273  O
HETATM   71 N71  LIG A   1     -31.841 -20.245  23.857  1.00  0.00    -0.341  N
HETATM   72 C72  LIG A   1     -31.482 -20.065  25.266  1.00  0.00     0.134  C
HETATM   73 C73  LIG A   1     -29.986 -20.222  25.409  1.00  0.00     0.245  C
HETATM   74 O74  LIG A   1     -29.272 -19.195  25.269  1.00  0.00    -0.273  O
HETATM   75 C75  LIG A   1     -32.324 -21.009  26.155  1.00  0.00     0.080  C
HETATM   76 O76  LIG A   1     -33.685 -20.724  25.949  1.00  0.00    -0.391  O
HETATM   77 C77  LIG A   1     -31.996 -20.827  27.644  1.00  0.00    -0.036  C
HETATM   78 N78  LIG A   1     -29.360 -21.501  25.629  1.00  0.00    -0.343  N
HETATM   79 C79  LIG A   1     -27.902 -21.693  25.662  1.00  0.00     0.105  C
HETATM   80 C80  LIG A   1     -27.243 -20.799  26.694  1.00  0.00     0.242  C
HETATM   81 O81  LIG A   1     -27.934 -20.309  27.629  1.00  0.00    -0.273  O
HETATM   82 C82  LIG A   1     -27.322 -21.470  24.259  1.00  0.00    -0.036  C
HETATM   83 N83  LIG A   1     -25.827 -20.563  26.659  1.00  0.00    -0.342  N
HETATM   84 C84  LIG A   1     -25.210 -19.371  27.251  1.00  0.00     0.110  C
HETATM   85 C85  LIG A   1     -24.857 -18.405  26.145  1.00  0.00     0.243  C
HETATM   86 O86  LIG A   1     -25.309 -17.230  26.188  1.00  0.00    -0.273  O
HETATM   87 C87  LIG A   1     -23.966 -19.762  28.101  1.00  0.00    -0.015  C
HETATM   88 C88  LIG A   1     -23.297 -18.508  28.700  1.00  0.00    -0.060  C
HETATM   89 C89  LIG A   1     -24.370 -20.755  29.221  1.00  0.00    -0.051  C
HETATM   90 C90  LIG A   1     -23.168 -21.349  29.961  1.00  0.00    -0.065  C
HETATM   91 N91  LIG A   1     -23.985 -18.801  25.075  1.00  0.00    -0.343  N
HETATM   92 C92  LIG A   1     -23.531 -17.855  24.049  1.00  0.00     0.105  C
HETATM   93 C93  LIG A   1     -24.618 -17.605  23.040  1.00  0.00     0.243  C
HETATM   94 O94  LIG A   1     -24.821 -16.429  22.636  1.00  0.00    -0.273  O
HETATM   95 C95  LIG A   1     -22.284 -18.392  23.343  1.00  0.00    -0.036  C
HETATM   96 N96  LIG A   1     -25.366 -18.698  22.484  1.00  0.00    -0.340  N
HETATM   97 C97  LIG A   1     -26.323 -18.521  21.387  1.00  0.00     0.131  C
HETATM   98 C98  LIG A   1     -27.666 -18.121  21.944  1.00  0.00     0.245  C
HETATM   99 O99  LIG A   1     -28.511 -19.009  22.242  1.00  0.00    -0.273  O
HETATM  100 C100 LIG A   1     -26.414 -19.808  20.554  1.00  0.00     0.072  C
HETATM  101 O101 LIG A   1     -25.172 -20.085  19.971  1.00  0.00    -0.394  O
HETATM  102 N102 LIG A   1     -27.959 -16.741  22.210  1.00  0.00    -0.342  N
HETATM  103 C103 LIG A   1     -28.831 -16.360  23.323  1.00  0.00     0.113  C
HETATM  104 C104 LIG A   1     -29.461 -15.011  23.079  1.00  0.00     0.243  C
HETATM  105 O105 LIG A   1     -30.707 -14.939  22.901  1.00  0.00    -0.273  O
HETATM  106 C106 LIG A   1     -28.020 -16.380  24.633  1.00  0.00     0.021  C
HETATM  107 C107 LIG A   1     -28.860 -16.142  25.857  1.00  0.00     0.061  C
HETATM  108 N108 LIG A   1     -30.197 -16.318  25.923  1.00  0.00    -0.242  N
HETATM  109 C109 LIG A   1     -28.371 -15.831  27.105  1.00  0.00     0.024  C
HETATM  110 C110 LIG A   1     -30.493 -16.081  27.218  1.00  0.00     0.092  C
HETATM  111 N111 LIG A   1     -29.407 -15.786  27.956  1.00  0.00    -0.351  N
HETATM  112 N112 LIG A   1     -28.670 -13.812  23.080  1.00  0.00    -0.341  N
HETATM  113 C113 LIG A   1     -29.206 -12.533  23.561  1.00  0.00     0.127  C
HETATM  114 C114 LIG A   1     -28.622 -11.380  22.785  1.00  0.00     0.326  C
HETATM  115 O115 LIG A   1     -28.339 -11.514  21.566  1.00  0.00    -0.250  O
HETATM  116 C116 LIG A   1     -28.973 -12.396  25.082  1.00  0.00    -0.020  C
HETATM  117 C117 LIG A   1     -27.483 -12.360  25.477  1.00  0.00    -0.033  C
HETATM  118 C118 LIG A   1     -27.314 -12.144  26.984  1.00  0.00     0.018  C
HETATM  119 N119 LIG A   1     -25.919 -11.843  27.309  1.00  0.00    -0.357  N
HETATM  120 C120 LIG A   1     -24.865 -12.815  27.260  1.00  0.00     0.185  C
HETATM  121 N121 LIG A   1     -25.114 -14.037  26.912  1.00  0.00    -0.270  N
HETATM  122 N122 LIG A   1     -23.532 -12.428  27.606  1.00  0.00    -0.370  N
HETATM  123 O123 LIG A   1     -28.469 -10.136  23.390  1.00  0.00    -0.480  O
ENDROOT
TORSDOF 0
                                                                                                                              
ENDMDL
